(written by ASE)

16000 atoms
5 atom types

0.0                      67  xlo xhi
0.0                      67  ylo yhi
0.0                      67  zlo zhi

Atoms # atomic

     1   2                       0                       0                       0
     2   2                   1.675                   1.675                   1.675
     3   4                       0                       0      3.3500000000000001
     4   3                   1.675                   1.675      5.0250000000000004
     5   5                       0                       0      6.7000000000000002
     6   4                   1.675                   1.675                   8.375
     7   4                       0                       0      10.050000000000001
     8   1                   1.675                   1.675      11.725000000000001
     9   5                       0                       0                    13.4
    10   1                   1.675                   1.675      15.075000000000001
    11   3                       0                       0                   16.75
    12   3                   1.675                   1.675      18.425000000000001
    13   5                       0                       0      20.100000000000001
    14   1                   1.675                   1.675      21.775000000000002
    15   2                       0                       0      23.449999999999999
    16   2                   1.675                   1.675                  25.125
    17   5                       0                       0      26.800000000000001
    18   5                   1.675                   1.675      28.475000000000001
    19   2                       0                       0      30.150000000000002
    20   5                   1.675                   1.675      31.825000000000003
    21   5                       0                       0                    33.5
    22   3                   1.675                   1.675      35.174999999999997
    23   5                       0                       0      36.850000000000001
    24   1                   1.675                   1.675      38.524999999999999
    25   5                       0                       0      40.200000000000003
    26   4                   1.675                   1.675                  41.875
    27   1                       0                       0      43.550000000000004
    28   1                   1.675                   1.675      45.225000000000001
    29   5                       0                       0      46.899999999999999
    30   1                   1.675                   1.675      48.574999999999996
    31   4                       0                       0                   50.25
    32   1                   1.675                   1.675      51.924999999999997
    33   2                       0                       0      53.600000000000001
    34   5                   1.675                   1.675      55.274999999999999
    35   4                       0                       0      56.950000000000003
    36   1                   1.675                   1.675                  58.625
    37   4                       0                       0      60.300000000000004
    38   4                   1.675                   1.675      61.975000000000001
    39   2                       0                       0      63.649999999999999
    40   3                   1.675                   1.675      65.325000000000003
    41   5                       0      3.3500000000000001                       0
    42   4                   1.675      5.0250000000000004                   1.675
    43   3                       0      3.3500000000000001      3.3500000000000001
    44   3                   1.675      5.0250000000000004      5.0250000000000004
    45   1                       0      3.3500000000000001      6.7000000000000002
    46   3                   1.675      5.0250000000000004                   8.375
    47   4                       0      3.3500000000000001      10.050000000000001
    48   5                   1.675      5.0250000000000004      11.725000000000001
    49   5                       0      3.3500000000000001                    13.4
    50   1                   1.675      5.0250000000000004      15.075000000000001
    51   2                       0      3.3500000000000001                   16.75
    52   4                   1.675      5.0250000000000004      18.425000000000001
    53   4                       0      3.3500000000000001      20.100000000000001
    54   5                   1.675      5.0250000000000004      21.775000000000002
    55   3                       0      3.3500000000000001      23.449999999999999
    56   4                   1.675      5.0250000000000004                  25.125
    57   5                       0      3.3500000000000001      26.800000000000001
    58   4                   1.675      5.0250000000000004      28.475000000000001
    59   5                       0      3.3500000000000001      30.150000000000002
    60   2                   1.675      5.0250000000000004      31.825000000000003
    61   2                       0      3.3500000000000001                    33.5
    62   1                   1.675      5.0250000000000004      35.174999999999997
    63   4                       0      3.3500000000000001      36.850000000000001
    64   5                   1.675      5.0250000000000004      38.524999999999999
    65   2                       0      3.3500000000000001      40.200000000000003
    66   2                   1.675      5.0250000000000004                  41.875
    67   5                       0      3.3500000000000001      43.550000000000004
    68   2                   1.675      5.0250000000000004      45.225000000000001
    69   5                       0      3.3500000000000001      46.899999999999999
    70   1                   1.675      5.0250000000000004      48.574999999999996
    71   5                       0      3.3500000000000001                   50.25
    72   1                   1.675      5.0250000000000004      51.924999999999997
    73   4                       0      3.3500000000000001      53.600000000000001
    74   1                   1.675      5.0250000000000004      55.274999999999999
    75   5                       0      3.3500000000000001      56.950000000000003
    76   5                   1.675      5.0250000000000004                  58.625
    77   1                       0      3.3500000000000001      60.300000000000004
    78   3                   1.675      5.0250000000000004      61.975000000000001
    79   3                       0      3.3500000000000001      63.649999999999999
    80   2                   1.675      5.0250000000000004      65.325000000000003
    81   1                       0      6.7000000000000002                       0
    82   3                   1.675                   8.375                   1.675
    83   3                       0      6.7000000000000002      3.3500000000000001
    84   4                   1.675                   8.375      5.0250000000000004
    85   2                       0      6.7000000000000002      6.7000000000000002
    86   4                   1.675                   8.375                   8.375
    87   1                       0      6.7000000000000002      10.050000000000001
    88   4                   1.675                   8.375      11.725000000000001
    89   2                       0      6.7000000000000002                    13.4
    90   5                   1.675                   8.375      15.075000000000001
    91   5                       0      6.7000000000000002                   16.75
    92   3                   1.675                   8.375      18.425000000000001
    93   5                       0      6.7000000000000002      20.100000000000001
    94   1                   1.675                   8.375      21.775000000000002
    95   1                       0      6.7000000000000002      23.449999999999999
    96   3                   1.675                   8.375                  25.125
    97   2                       0      6.7000000000000002      26.800000000000001
    98   2                   1.675                   8.375      28.475000000000001
    99   5                       0      6.7000000000000002      30.150000000000002
   100   1                   1.675                   8.375      31.825000000000003
   101   4                       0      6.7000000000000002                    33.5
   102   2                   1.675                   8.375      35.174999999999997
   103   2                       0      6.7000000000000002      36.850000000000001
   104   4                   1.675                   8.375      38.524999999999999
   105   5                       0      6.7000000000000002      40.200000000000003
   106   5                   1.675                   8.375                  41.875
   107   5                       0      6.7000000000000002      43.550000000000004
   108   1                   1.675                   8.375      45.225000000000001
   109   1                       0      6.7000000000000002      46.899999999999999
   110   2                   1.675                   8.375      48.574999999999996
   111   1                       0      6.7000000000000002                   50.25
   112   5                   1.675                   8.375      51.924999999999997
   113   2                       0      6.7000000000000002      53.600000000000001
   114   3                   1.675                   8.375      55.274999999999999
   115   2                       0      6.7000000000000002      56.950000000000003
   116   2                   1.675                   8.375                  58.625
   117   2                       0      6.7000000000000002      60.300000000000004
   118   2                   1.675                   8.375      61.975000000000001
   119   4                       0      6.7000000000000002      63.649999999999999
   120   2                   1.675                   8.375      65.325000000000003
   121   3                       0      10.050000000000001                       0
   122   3                   1.675      11.725000000000001                   1.675
   123   3                       0      10.050000000000001      3.3500000000000001
   124   2                   1.675      11.725000000000001      5.0250000000000004
   125   3                       0      10.050000000000001      6.7000000000000002
   126   1                   1.675      11.725000000000001                   8.375
   127   1                       0      10.050000000000001      10.050000000000001
   128   1                   1.675      11.725000000000001      11.725000000000001
   129   5                       0      10.050000000000001                    13.4
   130   4                   1.675      11.725000000000001      15.075000000000001
   131   1                       0      10.050000000000001                   16.75
   132   1                   1.675      11.725000000000001      18.425000000000001
   133   4                       0      10.050000000000001      20.100000000000001
   134   1                   1.675      11.725000000000001      21.775000000000002
   135   3                       0      10.050000000000001      23.449999999999999
   136   2                   1.675      11.725000000000001                  25.125
   137   3                       0      10.050000000000001      26.800000000000001
   138   5                   1.675      11.725000000000001      28.475000000000001
   139   1                       0      10.050000000000001      30.150000000000002
   140   5                   1.675      11.725000000000001      31.825000000000003
   141   5                       0      10.050000000000001                    33.5
   142   3                   1.675      11.725000000000001      35.174999999999997
   143   3                       0      10.050000000000001      36.850000000000001
   144   1                   1.675      11.725000000000001      38.524999999999999
   145   2                       0      10.050000000000001      40.200000000000003
   146   3                   1.675      11.725000000000001                  41.875
   147   1                       0      10.050000000000001      43.550000000000004
   148   5                   1.675      11.725000000000001      45.225000000000001
   149   3                       0      10.050000000000001      46.899999999999999
   150   2                   1.675      11.725000000000001      48.574999999999996
   151   3                       0      10.050000000000001                   50.25
   152   5                   1.675      11.725000000000001      51.924999999999997
   153   4                       0      10.050000000000001      53.600000000000001
   154   3                   1.675      11.725000000000001      55.274999999999999
   155   1                       0      10.050000000000001      56.950000000000003
   156   3                   1.675      11.725000000000001                  58.625
   157   3                       0      10.050000000000001      60.300000000000004
   158   5                   1.675      11.725000000000001      61.975000000000001
   159   2                       0      10.050000000000001      63.649999999999999
   160   2                   1.675      11.725000000000001      65.325000000000003
   161   3                       0                    13.4                       0
   162   3                   1.675      15.075000000000001                   1.675
   163   2                       0                    13.4      3.3500000000000001
   164   5                   1.675      15.075000000000001      5.0250000000000004
   165   3                       0                    13.4      6.7000000000000002
   166   4                   1.675      15.075000000000001                   8.375
   167   1                       0                    13.4      10.050000000000001
   168   4                   1.675      15.075000000000001      11.725000000000001
   169   3                       0                    13.4                    13.4
   170   3                   1.675      15.075000000000001      15.075000000000001
   171   4                       0                    13.4                   16.75
   172   4                   1.675      15.075000000000001      18.425000000000001
   173   1                       0                    13.4      20.100000000000001
   174   1                   1.675      15.075000000000001      21.775000000000002
   175   3                       0                    13.4      23.449999999999999
   176   5                   1.675      15.075000000000001                  25.125
   177   1                       0                    13.4      26.800000000000001
   178   4                   1.675      15.075000000000001      28.475000000000001
   179   5                       0                    13.4      30.150000000000002
   180   2                   1.675      15.075000000000001      31.825000000000003
   181   2                       0                    13.4                    33.5
   182   4                   1.675      15.075000000000001      35.174999999999997
   183   2                       0                    13.4      36.850000000000001
   184   2                   1.675      15.075000000000001      38.524999999999999
   185   4                       0                    13.4      40.200000000000003
   186   4                   1.675      15.075000000000001                  41.875
   187   3                       0                    13.4      43.550000000000004
   188   2                   1.675      15.075000000000001      45.225000000000001
   189   3                       0                    13.4      46.899999999999999
   190   1                   1.675      15.075000000000001      48.574999999999996
   191   1                       0                    13.4                   50.25
   192   3                   1.675      15.075000000000001      51.924999999999997
   193   3                       0                    13.4      53.600000000000001
   194   3                   1.675      15.075000000000001      55.274999999999999
   195   1                       0                    13.4      56.950000000000003
   196   1                   1.675      15.075000000000001                  58.625
   197   1                       0                    13.4      60.300000000000004
   198   1                   1.675      15.075000000000001      61.975000000000001
   199   5                       0                    13.4      63.649999999999999
   200   5                   1.675      15.075000000000001      65.325000000000003
   201   2                       0                   16.75                       0
   202   3                   1.675      18.425000000000001                   1.675
   203   5                       0                   16.75      3.3500000000000001
   204   4                   1.675      18.425000000000001      5.0250000000000004
   205   5                       0                   16.75      6.7000000000000002
   206   4                   1.675      18.425000000000001                   8.375
   207   3                       0                   16.75      10.050000000000001
   208   2                   1.675      18.425000000000001      11.725000000000001
   209   2                       0                   16.75                    13.4
   210   2                   1.675      18.425000000000001      15.075000000000001
   211   2                       0                   16.75                   16.75
   212   4                   1.675      18.425000000000001      18.425000000000001
   213   2                       0                   16.75      20.100000000000001
   214   2                   1.675      18.425000000000001      21.775000000000002
   215   4                       0                   16.75      23.449999999999999
   216   2                   1.675      18.425000000000001                  25.125
   217   1                       0                   16.75      26.800000000000001
   218   5                   1.675      18.425000000000001      28.475000000000001
   219   1                       0                   16.75      30.150000000000002
   220   5                   1.675      18.425000000000001      31.825000000000003
   221   3                       0                   16.75                    33.5
   222   3                   1.675      18.425000000000001      35.174999999999997
   223   2                       0                   16.75      36.850000000000001
   224   2                   1.675      18.425000000000001      38.524999999999999
   225   4                       0                   16.75      40.200000000000003
   226   4                   1.675      18.425000000000001                  41.875
   227   3                       0                   16.75      43.550000000000004
   228   3                   1.675      18.425000000000001      45.225000000000001
   229   1                       0                   16.75      46.899999999999999
   230   5                   1.675      18.425000000000001      48.574999999999996
   231   5                       0                   16.75                   50.25
   232   5                   1.675      18.425000000000001      51.924999999999997
   233   2                       0                   16.75      53.600000000000001
   234   5                   1.675      18.425000000000001      55.274999999999999
   235   4                       0                   16.75      56.950000000000003
   236   4                   1.675      18.425000000000001                  58.625
   237   2                       0                   16.75      60.300000000000004
   238   3                   1.675      18.425000000000001      61.975000000000001
   239   2                       0                   16.75      63.649999999999999
   240   5                   1.675      18.425000000000001      65.325000000000003
   241   1                       0      20.100000000000001                       0
   242   2                   1.675      21.775000000000002                   1.675
   243   1                       0      20.100000000000001      3.3500000000000001
   244   4                   1.675      21.775000000000002      5.0250000000000004
   245   3                       0      20.100000000000001      6.7000000000000002
   246   5                   1.675      21.775000000000002                   8.375
   247   3                       0      20.100000000000001      10.050000000000001
   248   3                   1.675      21.775000000000002      11.725000000000001
   249   1                       0      20.100000000000001                    13.4
   250   5                   1.675      21.775000000000002      15.075000000000001
   251   4                       0      20.100000000000001                   16.75
   252   5                   1.675      21.775000000000002      18.425000000000001
   253   1                       0      20.100000000000001      20.100000000000001
   254   2                   1.675      21.775000000000002      21.775000000000002
   255   1                       0      20.100000000000001      23.449999999999999
   256   4                   1.675      21.775000000000002                  25.125
   257   1                       0      20.100000000000001      26.800000000000001
   258   3                   1.675      21.775000000000002      28.475000000000001
   259   3                       0      20.100000000000001      30.150000000000002
   260   2                   1.675      21.775000000000002      31.825000000000003
   261   4                       0      20.100000000000001                    33.5
   262   5                   1.675      21.775000000000002      35.174999999999997
   263   2                       0      20.100000000000001      36.850000000000001
   264   2                   1.675      21.775000000000002      38.524999999999999
   265   2                       0      20.100000000000001      40.200000000000003
   266   4                   1.675      21.775000000000002                  41.875
   267   4                       0      20.100000000000001      43.550000000000004
   268   1                   1.675      21.775000000000002      45.225000000000001
   269   5                       0      20.100000000000001      46.899999999999999
   270   2                   1.675      21.775000000000002      48.574999999999996
   271   2                       0      20.100000000000001                   50.25
   272   1                   1.675      21.775000000000002      51.924999999999997
   273   3                       0      20.100000000000001      53.600000000000001
   274   5                   1.675      21.775000000000002      55.274999999999999
   275   4                       0      20.100000000000001      56.950000000000003
   276   4                   1.675      21.775000000000002                  58.625
   277   2                       0      20.100000000000001      60.300000000000004
   278   5                   1.675      21.775000000000002      61.975000000000001
   279   4                       0      20.100000000000001      63.649999999999999
   280   1                   1.675      21.775000000000002      65.325000000000003
   281   5                       0      23.449999999999999                       0
   282   5                   1.675                  25.125                   1.675
   283   4                       0      23.449999999999999      3.3500000000000001
   284   3                   1.675                  25.125      5.0250000000000004
   285   2                       0      23.449999999999999      6.7000000000000002
   286   3                   1.675                  25.125                   8.375
   287   1                       0      23.449999999999999      10.050000000000001
   288   2                   1.675                  25.125      11.725000000000001
   289   3                       0      23.449999999999999                    13.4
   290   2                   1.675                  25.125      15.075000000000001
   291   2                       0      23.449999999999999                   16.75
   292   4                   1.675                  25.125      18.425000000000001
   293   5                       0      23.449999999999999      20.100000000000001
   294   5                   1.675                  25.125      21.775000000000002
   295   5                       0      23.449999999999999      23.449999999999999
   296   5                   1.675                  25.125                  25.125
   297   3                       0      23.449999999999999      26.800000000000001
   298   5                   1.675                  25.125      28.475000000000001
   299   5                       0      23.449999999999999      30.150000000000002
   300   4                   1.675                  25.125      31.825000000000003
   301   2                       0      23.449999999999999                    33.5
   302   1                   1.675                  25.125      35.174999999999997
   303   4                       0      23.449999999999999      36.850000000000001
   304   5                   1.675                  25.125      38.524999999999999
   305   4                       0      23.449999999999999      40.200000000000003
   306   1                   1.675                  25.125                  41.875
   307   4                       0      23.449999999999999      43.550000000000004
   308   4                   1.675                  25.125      45.225000000000001
   309   5                       0      23.449999999999999      46.899999999999999
   310   2                   1.675                  25.125      48.574999999999996
   311   3                       0      23.449999999999999                   50.25
   312   2                   1.675                  25.125      51.924999999999997
   313   4                       0      23.449999999999999      53.600000000000001
   314   1                   1.675                  25.125      55.274999999999999
   315   5                       0      23.449999999999999      56.950000000000003
   316   5                   1.675                  25.125                  58.625
   317   3                       0      23.449999999999999      60.300000000000004
   318   5                   1.675                  25.125      61.975000000000001
   319   1                       0      23.449999999999999      63.649999999999999
   320   2                   1.675                  25.125      65.325000000000003
   321   5                       0      26.800000000000001                       0
   322   1                   1.675      28.475000000000001                   1.675
   323   4                       0      26.800000000000001      3.3500000000000001
   324   2                   1.675      28.475000000000001      5.0250000000000004
   325   2                       0      26.800000000000001      6.7000000000000002
   326   2                   1.675      28.475000000000001                   8.375
   327   1                       0      26.800000000000001      10.050000000000001
   328   3                   1.675      28.475000000000001      11.725000000000001
   329   1                       0      26.800000000000001                    13.4
   330   4                   1.675      28.475000000000001      15.075000000000001
   331   1                       0      26.800000000000001                   16.75
   332   4                   1.675      28.475000000000001      18.425000000000001
   333   5                       0      26.800000000000001      20.100000000000001
   334   4                   1.675      28.475000000000001      21.775000000000002
   335   4                       0      26.800000000000001      23.449999999999999
   336   1                   1.675      28.475000000000001                  25.125
   337   5                       0      26.800000000000001      26.800000000000001
   338   3                   1.675      28.475000000000001      28.475000000000001
   339   1                       0      26.800000000000001      30.150000000000002
   340   3                   1.675      28.475000000000001      31.825000000000003
   341   1                       0      26.800000000000001                    33.5
   342   1                   1.675      28.475000000000001      35.174999999999997
   343   4                       0      26.800000000000001      36.850000000000001
   344   1                   1.675      28.475000000000001      38.524999999999999
   345   3                       0      26.800000000000001      40.200000000000003
   346   2                   1.675      28.475000000000001                  41.875
   347   2                       0      26.800000000000001      43.550000000000004
   348   2                   1.675      28.475000000000001      45.225000000000001
   349   1                       0      26.800000000000001      46.899999999999999
   350   5                   1.675      28.475000000000001      48.574999999999996
   351   2                       0      26.800000000000001                   50.25
   352   3                   1.675      28.475000000000001      51.924999999999997
   353   3                       0      26.800000000000001      53.600000000000001
   354   3                   1.675      28.475000000000001      55.274999999999999
   355   5                       0      26.800000000000001      56.950000000000003
   356   4                   1.675      28.475000000000001                  58.625
   357   4                       0      26.800000000000001      60.300000000000004
   358   1                   1.675      28.475000000000001      61.975000000000001
   359   4                       0      26.800000000000001      63.649999999999999