(written by ASE)

16000 atoms
5 atom types

0.0      68.200000000000003  xlo xhi
0.0      68.200000000000003  ylo yhi
0.0      68.200000000000003  zlo zhi

Atoms # atomic

     1   4                       0                       0                       0
     2   2      1.7050000000000001      1.7050000000000001      1.7050000000000001
     3   5                       0                       0      3.4100000000000001
     4   2      1.7050000000000001      1.7050000000000001      5.1150000000000002
     5   5                       0                       0      6.8200000000000003
     6   5      1.7050000000000001      1.7050000000000001      8.5250000000000004
     7   1                       0                       0                   10.23
     8   1      1.7050000000000001      1.7050000000000001                  11.935
     9   4                       0                       0      13.640000000000001
    10   5      1.7050000000000001      1.7050000000000001      15.345000000000001
    11   3                       0                       0      17.050000000000001
    12   5      1.7050000000000001      1.7050000000000001      18.755000000000003
    13   1                       0                       0      20.460000000000001
    14   4      1.7050000000000001      1.7050000000000001      22.164999999999999
    15   1                       0                       0      23.870000000000001
    16   1      1.7050000000000001      1.7050000000000001      25.575000000000003
    17   2                       0                       0      27.280000000000001
    18   4      1.7050000000000001      1.7050000000000001      28.984999999999999
    19   4                       0                       0      30.690000000000001
    20   5      1.7050000000000001      1.7050000000000001      32.395000000000003
    21   5                       0                       0      34.100000000000001
    22   4      1.7050000000000001      1.7050000000000001                  35.805
    23   1                       0                       0      37.510000000000005
    24   3      1.7050000000000001      1.7050000000000001      39.215000000000003
    25   4                       0                       0      40.920000000000002
    26   4      1.7050000000000001      1.7050000000000001                  42.625
    27   5                       0                       0      44.329999999999998
    28   3      1.7050000000000001      1.7050000000000001      46.034999999999997
    29   1                       0                       0      47.740000000000002
    30   2      1.7050000000000001      1.7050000000000001                  49.445
    31   1                       0                       0      51.150000000000006
    32   3      1.7050000000000001      1.7050000000000001      52.855000000000004
    33   5                       0                       0      54.560000000000002
    34   5      1.7050000000000001      1.7050000000000001      56.265000000000001
    35   3                       0                       0      57.969999999999999
    36   3      1.7050000000000001      1.7050000000000001      59.674999999999997
    37   2                       0                       0      61.380000000000003
    38   4      1.7050000000000001      1.7050000000000001      63.085000000000001
    39   2                       0                       0      64.790000000000006
    40   1      1.7050000000000001      1.7050000000000001      66.495000000000005
    41   5                       0      3.4100000000000001                       0
    42   4      1.7050000000000001      5.1150000000000002      1.7050000000000001
    43   1                       0      3.4100000000000001      3.4100000000000001
    44   5      1.7050000000000001      5.1150000000000002      5.1150000000000002
    45   1                       0      3.4100000000000001      6.8200000000000003
    46   2      1.7050000000000001      5.1150000000000002      8.5250000000000004
    47   2                       0      3.4100000000000001                   10.23
    48   2      1.7050000000000001      5.1150000000000002                  11.935
    49   3                       0      3.4100000000000001      13.640000000000001
    50   2      1.7050000000000001      5.1150000000000002      15.345000000000001
    51   3                       0      3.4100000000000001      17.050000000000001
    52   1      1.7050000000000001      5.1150000000000002      18.755000000000003
    53   1                       0      3.4100000000000001      20.460000000000001
    54   5      1.7050000000000001      5.1150000000000002      22.164999999999999
    55   1                       0      3.4100000000000001      23.870000000000001
    56   4      1.7050000000000001      5.1150000000000002      25.575000000000003
    57   4                       0      3.4100000000000001      27.280000000000001
    58   3      1.7050000000000001      5.1150000000000002      28.984999999999999
    59   4                       0      3.4100000000000001      30.690000000000001
    60   3      1.7050000000000001      5.1150000000000002      32.395000000000003
    61   3                       0      3.4100000000000001      34.100000000000001
    62   1      1.7050000000000001      5.1150000000000002                  35.805
    63   1                       0      3.4100000000000001      37.510000000000005
    64   5      1.7050000000000001      5.1150000000000002      39.215000000000003
    65   3                       0      3.4100000000000001      40.920000000000002
    66   5      1.7050000000000001      5.1150000000000002                  42.625
    67   1                       0      3.4100000000000001      44.329999999999998
    68   2      1.7050000000000001      5.1150000000000002      46.034999999999997
    69   4                       0      3.4100000000000001      47.740000000000002
    70   1      1.7050000000000001      5.1150000000000002                  49.445
    71   3                       0      3.4100000000000001      51.150000000000006
    72   1      1.7050000000000001      5.1150000000000002      52.855000000000004
    73   4                       0      3.4100000000000001      54.560000000000002
    74   3      1.7050000000000001      5.1150000000000002      56.265000000000001
    75   2                       0      3.4100000000000001      57.969999999999999
    76   3      1.7050000000000001      5.1150000000000002      59.674999999999997
    77   1                       0      3.4100000000000001      61.380000000000003
    78   1      1.7050000000000001      5.1150000000000002      63.085000000000001
    79   4                       0      3.4100000000000001      64.790000000000006
    80   1      1.7050000000000001      5.1150000000000002      66.495000000000005
    81   4                       0      6.8200000000000003                       0
    82   2      1.7050000000000001      8.5250000000000004      1.7050000000000001
    83   2                       0      6.8200000000000003      3.4100000000000001
    84   1      1.7050000000000001      8.5250000000000004      5.1150000000000002
    85   5                       0      6.8200000000000003      6.8200000000000003
    86   4      1.7050000000000001      8.5250000000000004      8.5250000000000004
    87   2                       0      6.8200000000000003                   10.23
    88   3      1.7050000000000001      8.5250000000000004                  11.935
    89   4                       0      6.8200000000000003      13.640000000000001
    90   1      1.7050000000000001      8.5250000000000004      15.345000000000001
    91   1                       0      6.8200000000000003      17.050000000000001
    92   1      1.7050000000000001      8.5250000000000004      18.755000000000003
    93   3                       0      6.8200000000000003      20.460000000000001
    94   1      1.7050000000000001      8.5250000000000004      22.164999999999999
    95   2                       0      6.8200000000000003      23.870000000000001
    96   5      1.7050000000000001      8.5250000000000004      25.575000000000003
    97   2                       0      6.8200000000000003      27.280000000000001
    98   3      1.7050000000000001      8.5250000000000004      28.984999999999999
    99   1                       0      6.8200000000000003      30.690000000000001
   100   2      1.7050000000000001      8.5250000000000004      32.395000000000003
   101   3                       0      6.8200000000000003      34.100000000000001
   102   1      1.7050000000000001      8.5250000000000004                  35.805
   103   5                       0      6.8200000000000003      37.510000000000005
   104   5      1.7050000000000001      8.5250000000000004      39.215000000000003
   105   3                       0      6.8200000000000003      40.920000000000002
   106   2      1.7050000000000001      8.5250000000000004                  42.625
   107   5                       0      6.8200000000000003      44.329999999999998
   108   1      1.7050000000000001      8.5250000000000004      46.034999999999997
   109   3                       0      6.8200000000000003      47.740000000000002
   110   2      1.7050000000000001      8.5250000000000004                  49.445
   111   1                       0      6.8200000000000003      51.150000000000006
   112   2      1.7050000000000001      8.5250000000000004      52.855000000000004
   113   2                       0      6.8200000000000003      54.560000000000002
   114   3      1.7050000000000001      8.5250000000000004      56.265000000000001
   115   1                       0      6.8200000000000003      57.969999999999999
   116   2      1.7050000000000001      8.5250000000000004      59.674999999999997
   117   2                       0      6.8200000000000003      61.380000000000003
   118   1      1.7050000000000001      8.5250000000000004      63.085000000000001
   119   3                       0      6.8200000000000003      64.790000000000006
   120   3      1.7050000000000001      8.5250000000000004      66.495000000000005
   121   5                       0                   10.23                       0
   122   5      1.7050000000000001                  11.935      1.7050000000000001
   123   4                       0                   10.23      3.4100000000000001
   124   5      1.7050000000000001                  11.935      5.1150000000000002
   125   2                       0                   10.23      6.8200000000000003
   126   2      1.7050000000000001                  11.935      8.5250000000000004
   127   2                       0                   10.23                   10.23
   128   1      1.7050000000000001                  11.935                  11.935
   129   3                       0                   10.23      13.640000000000001
   130   4      1.7050000000000001                  11.935      15.345000000000001
   131   2                       0                   10.23      17.050000000000001
   132   4      1.7050000000000001                  11.935      18.755000000000003
   133   3                       0                   10.23      20.460000000000001
   134   4      1.7050000000000001                  11.935      22.164999999999999
   135   3                       0                   10.23      23.870000000000001
   136   1      1.7050000000000001                  11.935      25.575000000000003
   137   1                       0                   10.23      27.280000000000001
   138   2      1.7050000000000001                  11.935      28.984999999999999
   139   5                       0                   10.23      30.690000000000001
   140   2      1.7050000000000001                  11.935      32.395000000000003
   141   1                       0                   10.23      34.100000000000001
   142   3      1.7050000000000001                  11.935                  35.805
   143   4                       0                   10.23      37.510000000000005
   144   2      1.7050000000000001                  11.935      39.215000000000003
   145   2                       0                   10.23      40.920000000000002
   146   4      1.7050000000000001                  11.935                  42.625
   147   3                       0                   10.23      44.329999999999998
   148   1      1.7050000000000001                  11.935      46.034999999999997
   149   4                       0                   10.23      47.740000000000002
   150   1      1.7050000000000001                  11.935                  49.445
   151   1                       0                   10.23      51.150000000000006
   152   5      1.7050000000000001                  11.935      52.855000000000004
   153   5                       0                   10.23      54.560000000000002
   154   3      1.7050000000000001                  11.935      56.265000000000001
   155   2                       0                   10.23      57.969999999999999
   156   3      1.7050000000000001                  11.935      59.674999999999997
   157   5                       0                   10.23      61.380000000000003
   158   4      1.7050000000000001                  11.935      63.085000000000001
   159   3                       0                   10.23      64.790000000000006
   160   1      1.7050000000000001                  11.935      66.495000000000005
   161   4                       0      13.640000000000001                       0
   162   4      1.7050000000000001      15.345000000000001      1.7050000000000001
   163   1                       0      13.640000000000001      3.4100000000000001
   164   5      1.7050000000000001      15.345000000000001      5.1150000000000002
   165   5                       0      13.640000000000001      6.8200000000000003
   166   3      1.7050000000000001      15.345000000000001      8.5250000000000004
   167   4                       0      13.640000000000001                   10.23
   168   4      1.7050000000000001      15.345000000000001                  11.935
   169   2                       0      13.640000000000001      13.640000000000001
   170   1      1.7050000000000001      15.345000000000001      15.345000000000001
   171   4                       0      13.640000000000001      17.050000000000001
   172   4      1.7050000000000001      15.345000000000001      18.755000000000003
   173   2                       0      13.640000000000001      20.460000000000001
   174   4      1.7050000000000001      15.345000000000001      22.164999999999999
   175   4                       0      13.640000000000001      23.870000000000001
   176   3      1.7050000000000001      15.345000000000001      25.575000000000003
   177   1                       0      13.640000000000001      27.280000000000001
   178   2      1.7050000000000001      15.345000000000001      28.984999999999999
   179   3                       0      13.640000000000001      30.690000000000001
   180   5      1.7050000000000001      15.345000000000001      32.395000000000003
   181   5                       0      13.640000000000001      34.100000000000001
   182   1      1.7050000000000001      15.345000000000001                  35.805
   183   3                       0      13.640000000000001      37.510000000000005
   184   2      1.7050000000000001      15.345000000000001      39.215000000000003
   185   5                       0      13.640000000000001      40.920000000000002
   186   4      1.7050000000000001      15.345000000000001                  42.625
   187   2                       0      13.640000000000001      44.329999999999998
   188   1      1.7050000000000001      15.345000000000001      46.034999999999997
   189   3                       0      13.640000000000001      47.740000000000002
   190   4      1.7050000000000001      15.345000000000001                  49.445
   191   5                       0      13.640000000000001      51.150000000000006
   192   5      1.7050000000000001      15.345000000000001      52.855000000000004
   193   5                       0      13.640000000000001      54.560000000000002
   194   5      1.7050000000000001      15.345000000000001      56.265000000000001
   195   5                       0      13.640000000000001      57.969999999999999
   196   3      1.7050000000000001      15.345000000000001      59.674999999999997
   197   5                       0      13.640000000000001      61.380000000000003
   198   1      1.7050000000000001      15.345000000000001      63.085000000000001
   199   5                       0      13.640000000000001      64.790000000000006
   200   4      1.7050000000000001      15.345000000000001      66.495000000000005
   201   4                       0      17.050000000000001                       0
   202   2      1.7050000000000001      18.755000000000003      1.7050000000000001
   203   4                       0      17.050000000000001      3.4100000000000001
   204   3      1.7050000000000001      18.755000000000003      5.1150000000000002
   205   5                       0      17.050000000000001      6.8200000000000003
   206   3      1.7050000000000001      18.755000000000003      8.5250000000000004
   207   5                       0      17.050000000000001                   10.23
   208   2      1.7050000000000001      18.755000000000003                  11.935
   209   1                       0      17.050000000000001      13.640000000000001
   210   2      1.7050000000000001      18.755000000000003      15.345000000000001
   211   2                       0      17.050000000000001      17.050000000000001
   212   1      1.7050000000000001      18.755000000000003      18.755000000000003
   213   2                       0      17.050000000000001      20.460000000000001
   214   3      1.7050000000000001      18.755000000000003      22.164999999999999
   215   4                       0      17.050000000000001      23.870000000000001
   216   4      1.7050000000000001      18.755000000000003      25.575000000000003
   217   4                       0      17.050000000000001      27.280000000000001
   218   5      1.7050000000000001      18.755000000000003      28.984999999999999
   219   3                       0      17.050000000000001      30.690000000000001
   220   2      1.7050000000000001      18.755000000000003      32.395000000000003
   221   4                       0      17.050000000000001      34.100000000000001
   222   2      1.7050000000000001      18.755000000000003                  35.805
   223   1                       0      17.050000000000001      37.510000000000005
   224   3      1.7050000000000001      18.755000000000003      39.215000000000003
   225   1                       0      17.050000000000001      40.920000000000002
   226   4      1.7050000000000001      18.755000000000003                  42.625
   227   2                       0      17.050000000000001      44.329999999999998
   228   3      1.7050000000000001      18.755000000000003      46.034999999999997
   229   3                       0      17.050000000000001      47.740000000000002
   230   5      1.7050000000000001      18.755000000000003                  49.445
   231   5                       0      17.050000000000001      51.150000000000006
   232   4      1.7050000000000001      18.755000000000003      52.855000000000004
   233   4                       0      17.050000000000001      54.560000000000002
   234   4      1.7050000000000001      18.755000000000003      56.265000000000001
   235   4                       0      17.050000000000001      57.969999999999999
   236   3      1.7050000000000001      18.755000000000003      59.674999999999997
   237   2                       0      17.050000000000001      61.380000000000003
   238   1      1.7050000000000001      18.755000000000003      63.085000000000001
   239   5                       0      17.050000000000001      64.790000000000006
   240   1      1.7050000000000001      18.755000000000003      66.495000000000005
   241   3                       0      20.460000000000001                       0
   242   3      1.7050000000000001      22.164999999999999      1.7050000000000001
   243   3                       0      20.460000000000001      3.4100000000000001
   244   4      1.7050000000000001      22.164999999999999      5.1150000000000002
   245   1                       0      20.460000000000001      6.8200000000000003
   246   5      1.7050000000000001      22.164999999999999      8.5250000000000004
   247   1                       0      20.460000000000001                   10.23
   248   5      1.7050000000000001      22.164999999999999                  11.935
   249   1                       0      20.460000000000001      13.640000000000001
   250   5      1.7050000000000001      22.164999999999999      15.345000000000001
   251   3                       0      20.460000000000001      17.050000000000001
   252   1      1.7050000000000001      22.164999999999999      18.755000000000003
   253   5                       0      20.460000000000001      20.460000000000001
   254   5      1.7050000000000001      22.164999999999999      22.164999999999999
   255   4                       0      20.460000000000001      23.870000000000001
   256   1      1.7050000000000001      22.164999999999999      25.575000000000003
   257   1                       0      20.460000000000001      27.280000000000001
   258   3      1.7050000000000001      22.164999999999999      28.984999999999999
   259   2                       0      20.460000000000001      30.690000000000001
   260   2      1.7050000000000001      22.164999999999999      32.395000000000003
   261   5                       0      20.460000000000001      34.100000000000001
   262   4      1.7050000000000001      22.164999999999999                  35.805
   263   2                       0      20.460000000000001      37.510000000000005
   264   4      1.7050000000000001      22.164999999999999      39.215000000000003
   265   1                       0      20.460000000000001      40.920000000000002
   266   2      1.7050000000000001      22.164999999999999                  42.625
   267   5                       0      20.460000000000001      44.329999999999998
   268   3      1.7050000000000001      22.164999999999999      46.034999999999997
   269   3                       0      20.460000000000001      47.740000000000002
   270   5      1.7050000000000001      22.164999999999999                  49.445
   271   3                       0      20.460000000000001      51.150000000000006
   272   4      1.7050000000000001      22.164999999999999      52.855000000000004
   273   5                       0      20.460000000000001      54.560000000000002
   274   2      1.7050000000000001      22.164999999999999      56.265000000000001
   275   5                       0      20.460000000000001      57.969999999999999
   276   2      1.7050000000000001      22.164999999999999      59.674999999999997
   277   3                       0      20.460000000000001      61.380000000000003
   278   5      1.7050000000000001      22.164999999999999      63.085000000000001
   279   2                       0      20.460000000000001      64.790000000000006
   280   3      1.7050000000000001      22.164999999999999      66.495000000000005
   281   4                       0      23.870000000000001                       0
   282   1      1.7050000000000001      25.575000000000003      1.7050000000000001
   283   2                       0      23.870000000000001      3.4100000000000001
   284   3      1.7050000000000001      25.575000000000003      5.1150000000000002
   285   1                       0      23.870000000000001      6.8200000000000003
   286   5      1.7050000000000001      25.575000000000003      8.5250000000000004
   287   1                       0      23.870000000000001                   10.23
   288   3      1.7050000000000001      25.575000000000003                  11.935
   289   1                       0      23.870000000000001      13.640000000000001
   290   4      1.7050000000000001      25.575000000000003      15.345000000000001
   291   5                       0      23.870000000000001      17.050000000000001
   292   4      1.7050000000000001      25.575000000000003      18.755000000000003
   293   5                       0      23.870000000000001      20.460000000000001
   294   4      1.7050000000000001      25.575000000000003      22.164999999999999
   295   5                       0      23.870000000000001      23.870000000000001
   296   4      1.7050000000000001      25.575000000000003      25.575000000000003
   297   1                       0      23.870000000000001      27.280000000000001
   298   1      1.7050000000000001      25.575000000000003      28.984999999999999
   299   2                       0      23.870000000000001      30.690000000000001
   300   2      1.7050000000000001      25.575000000000003      32.395000000000003
   301   2                       0      23.870000000000001      34.100000000000001
   302   2      1.7050000000000001      25.575000000000003                  35.805
   303   4                       0      23.870000000000001      37.510000000000005
   304   3      1.7050000000000001      25.575000000000003      39.215000000000003
   305   2                       0      23.870000000000001      40.920000000000002
   306   2      1.7050000000000001      25.575000000000003                  42.625
   307   2                       0      23.870000000000001      44.329999999999998
   308   1      1.7050000000000001      25.575000000000003      46.034999999999997
   309   4                       0      23.870000000000001      47.740000000000002
   310   3      1.7050000000000001      25.575000000000003                  49.445
   311   3                       0      23.870000000000001      51.150000000000006
   312   1      1.7050000000000001      25.575000000000003      52.855000000000004
   313   5                       0      23.870000000000001      54.560000000000002
   314   4      1.7050000000000001      25.575000000000003      56.265000000000001
   315   5                       0      23.870000000000001      57.969999999999999
   316   2      1.7050000000000001      25.575000000000003      59.674999999999997
   317   3                       0      23.870000000000001      61.380000000000003
   318   1      1.7050000000000001      25.575000000000003      63.085000000000001
   319   5                       0      23.870000000000001      64.790000000000006
   320   5      1.7050000000000001      25.575000000000003      66.495000000000005
   321   5                       0      27.280000000000001                       0
   322   2      1.7050000000000001      28.984999999999999      1.7050000000000001
   323   2                       0      27.280000000000001      3.4100000000000001
   324   3      1.7050000000000001      28.984999999999999      5.1150000000000002
   325   2                       0      27.280000000000001      6.8200000000000003
   326   2      1.7050000000000001      28.984999999999999      8.5250000000000004
   327   1                       0      27.280000000000001                   10.23
   328   3      1.7050000000000001      28.984999999999999                  11.935
   329   1                       0      27.280000000000001      13.640000000000001
   330   1      1.7050000000000001      28.984999999999999      15.345000000000001
   331   3                       0      27.280000000000001      17.050000000000001
   332   5      1.7050000000000001      28.984999999999999      18.755000000000003
   333   4                       0      27.280000000000001      20.460000000000001
   334   2      1.7050000000000001      28.984999999999999      22.164999999999999
   335   2                       0      27.280000000000001      23.870000000000001
   336   4      1.7050000000000001      28.984999999999999      25.575000000000003
   337   2                       0      27.280000000000001      27.280000000000001
   338   4      1.7050000000000001      28.984999999999999      28.984999999999999
   339   2                       0      27.280000000000001      30.690000000000001
   340   3      1.7050000000000001      28.984999999999999      32.395000000000003
   341   1                       0      27.280000000000001      34.100000000000001
   342   4      1.7050000000000001      28.984999999999999                  35.805
   343   1                       0      27.280000000000001      37.510000000000005
   344   1      1.7050000000000001      28.984999999999999      39.215000000000003
   345   4                       0      27.280000000000001      40.920000000000002
   346   5      1.7050000000000001      28.984999999999999                  42.625
   347   1                       0      27.280000000000001      44.329999999999998
   348   2      1.7050000000000001      28.984999999999999      46.034999999999997
   349   4                       0      27.280000000000001      47.740000000000002
   350   1      1.7050000000000001      28.984999999999999                  49.445
   351   2                       0      27.280000000000001      51.150000000000006
   352   2      1.7050000000000001      28.984999999999999      52.855000000000004
   353   1                       0      27.280000000000001      54.560000000000002
   354   2      1.7050000000000001      28.984999999999999      56.265000000000001
   355   5                       0      27.280000000000001      57.969999999999999
   356   3      1.7050000000000001      28.984999999999999      59.674999999999997
   357   4                       0      27.280000000000001      61.380000000000003
   358   3      1.7050000000000001      28.984999999999999      63.085000000000001
   359   4                       0      27.280000000000001      64.790000000000006