(written by ASE)

16000 atoms
5 atom types

0.0      68.600000000000009  xlo xhi
0.0      68.600000000000009  ylo yhi
0.0      68.600000000000009  zlo zhi

Atoms # atomic

     1   1                       0                       0                       0
     2   4      1.7150000000000001      1.7150000000000001      1.7150000000000001
     3   2                       0                       0      3.4300000000000002
     4   1      1.7150000000000001      1.7150000000000001      5.1450000000000005
     5   1                       0                       0      6.8600000000000003
     6   1      1.7150000000000001      1.7150000000000001      8.5750000000000011
     7   3                       0                       0      10.290000000000001
     8   4      1.7150000000000001      1.7150000000000001      12.005000000000001
     9   4                       0                       0      13.720000000000001
    10   5      1.7150000000000001      1.7150000000000001                  15.435
    11   4                       0                       0      17.150000000000002
    12   2      1.7150000000000001      1.7150000000000001      18.865000000000002
    13   2                       0                       0      20.580000000000002
    14   2      1.7150000000000001      1.7150000000000001      22.295000000000002
    15   3                       0                       0      24.010000000000002
    16   5      1.7150000000000001      1.7150000000000001      25.725000000000001
    17   3                       0                       0      27.440000000000001
    18   1      1.7150000000000001      1.7150000000000001      29.155000000000001
    19   5                       0                       0      30.870000000000001
    20   3      1.7150000000000001      1.7150000000000001      32.585000000000001
    21   5                       0                       0      34.300000000000004
    22   1      1.7150000000000001      1.7150000000000001      36.015000000000008
    23   3                       0                       0      37.730000000000004
    24   5      1.7150000000000001      1.7150000000000001      39.445000000000007
    25   2                       0                       0      41.160000000000004
    26   4      1.7150000000000001      1.7150000000000001      42.875000000000007
    27   5                       0                       0      44.590000000000003
    28   2      1.7150000000000001      1.7150000000000001      46.305000000000007
    29   1                       0                       0      48.020000000000003
    30   3      1.7150000000000001      1.7150000000000001      49.735000000000007
    31   2                       0                       0      51.450000000000003
    32   3      1.7150000000000001      1.7150000000000001      53.165000000000006
    33   1                       0                       0      54.880000000000003
    34   5      1.7150000000000001      1.7150000000000001      56.595000000000006
    35   5                       0                       0      58.310000000000002
    36   5      1.7150000000000001      1.7150000000000001      60.025000000000006
    37   5                       0                       0      61.740000000000002
    38   4      1.7150000000000001      1.7150000000000001      63.455000000000005
    39   4                       0                       0      65.170000000000002
    40   1      1.7150000000000001      1.7150000000000001      66.885000000000005
    41   3                       0      3.4300000000000002                       0
    42   3      1.7150000000000001      5.1450000000000005      1.7150000000000001
    43   5                       0      3.4300000000000002      3.4300000000000002
    44   1      1.7150000000000001      5.1450000000000005      5.1450000000000005
    45   1                       0      3.4300000000000002      6.8600000000000003
    46   1      1.7150000000000001      5.1450000000000005      8.5750000000000011
    47   4                       0      3.4300000000000002      10.290000000000001
    48   1      1.7150000000000001      5.1450000000000005      12.005000000000001
    49   2                       0      3.4300000000000002      13.720000000000001
    50   2      1.7150000000000001      5.1450000000000005                  15.435
    51   3                       0      3.4300000000000002      17.150000000000002
    52   4      1.7150000000000001      5.1450000000000005      18.865000000000002
    53   1                       0      3.4300000000000002      20.580000000000002
    54   5      1.7150000000000001      5.1450000000000005      22.295000000000002
    55   5                       0      3.4300000000000002      24.010000000000002
    56   5      1.7150000000000001      5.1450000000000005      25.725000000000001
    57   4                       0      3.4300000000000002      27.440000000000001
    58   1      1.7150000000000001      5.1450000000000005      29.155000000000001
    59   2                       0      3.4300000000000002      30.870000000000001
    60   4      1.7150000000000001      5.1450000000000005      32.585000000000001
    61   1                       0      3.4300000000000002      34.300000000000004
    62   2      1.7150000000000001      5.1450000000000005      36.015000000000008
    63   2                       0      3.4300000000000002      37.730000000000004
    64   4      1.7150000000000001      5.1450000000000005      39.445000000000007
    65   4                       0      3.4300000000000002      41.160000000000004
    66   1      1.7150000000000001      5.1450000000000005      42.875000000000007
    67   2                       0      3.4300000000000002      44.590000000000003
    68   3      1.7150000000000001      5.1450000000000005      46.305000000000007
    69   1                       0      3.4300000000000002      48.020000000000003
    70   4      1.7150000000000001      5.1450000000000005      49.735000000000007
    71   5                       0      3.4300000000000002      51.450000000000003
    72   3      1.7150000000000001      5.1450000000000005      53.165000000000006
    73   5                       0      3.4300000000000002      54.880000000000003
    74   4      1.7150000000000001      5.1450000000000005      56.595000000000006
    75   2                       0      3.4300000000000002      58.310000000000002
    76   3      1.7150000000000001      5.1450000000000005      60.025000000000006
    77   2                       0      3.4300000000000002      61.740000000000002
    78   1      1.7150000000000001      5.1450000000000005      63.455000000000005
    79   2                       0      3.4300000000000002      65.170000000000002
    80   1      1.7150000000000001      5.1450000000000005      66.885000000000005
    81   3                       0      6.8600000000000003                       0
    82   3      1.7150000000000001      8.5750000000000011      1.7150000000000001
    83   1                       0      6.8600000000000003      3.4300000000000002
    84   5      1.7150000000000001      8.5750000000000011      5.1450000000000005
    85   1                       0      6.8600000000000003      6.8600000000000003
    86   4      1.7150000000000001      8.5750000000000011      8.5750000000000011
    87   4                       0      6.8600000000000003      10.290000000000001
    88   2      1.7150000000000001      8.5750000000000011      12.005000000000001
    89   5                       0      6.8600000000000003      13.720000000000001
    90   5      1.7150000000000001      8.5750000000000011                  15.435
    91   2                       0      6.8600000000000003      17.150000000000002
    92   3      1.7150000000000001      8.5750000000000011      18.865000000000002
    93   3                       0      6.8600000000000003      20.580000000000002
    94   4      1.7150000000000001      8.5750000000000011      22.295000000000002
    95   3                       0      6.8600000000000003      24.010000000000002
    96   2      1.7150000000000001      8.5750000000000011      25.725000000000001
    97   1                       0      6.8600000000000003      27.440000000000001
    98   5      1.7150000000000001      8.5750000000000011      29.155000000000001
    99   5                       0      6.8600000000000003      30.870000000000001
   100   4      1.7150000000000001      8.5750000000000011      32.585000000000001
   101   1                       0      6.8600000000000003      34.300000000000004
   102   5      1.7150000000000001      8.5750000000000011      36.015000000000008
   103   3                       0      6.8600000000000003      37.730000000000004
   104   4      1.7150000000000001      8.5750000000000011      39.445000000000007
   105   2                       0      6.8600000000000003      41.160000000000004
   106   4      1.7150000000000001      8.5750000000000011      42.875000000000007
   107   5                       0      6.8600000000000003      44.590000000000003
   108   1      1.7150000000000001      8.5750000000000011      46.305000000000007
   109   5                       0      6.8600000000000003      48.020000000000003
   110   1      1.7150000000000001      8.5750000000000011      49.735000000000007
   111   3                       0      6.8600000000000003      51.450000000000003
   112   4      1.7150000000000001      8.5750000000000011      53.165000000000006
   113   4                       0      6.8600000000000003      54.880000000000003
   114   5      1.7150000000000001      8.5750000000000011      56.595000000000006
   115   4                       0      6.8600000000000003      58.310000000000002
   116   5      1.7150000000000001      8.5750000000000011      60.025000000000006
   117   5                       0      6.8600000000000003      61.740000000000002
   118   4      1.7150000000000001      8.5750000000000011      63.455000000000005
   119   2                       0      6.8600000000000003      65.170000000000002
   120   4      1.7150000000000001      8.5750000000000011      66.885000000000005
   121   5                       0      10.290000000000001                       0
   122   4      1.7150000000000001      12.005000000000001      1.7150000000000001
   123   3                       0      10.290000000000001      3.4300000000000002
   124   3      1.7150000000000001      12.005000000000001      5.1450000000000005
   125   5                       0      10.290000000000001      6.8600000000000003
   126   1      1.7150000000000001      12.005000000000001      8.5750000000000011
   127   5                       0      10.290000000000001      10.290000000000001
   128   4      1.7150000000000001      12.005000000000001      12.005000000000001
   129   1                       0      10.290000000000001      13.720000000000001
   130   1      1.7150000000000001      12.005000000000001                  15.435
   131   4                       0      10.290000000000001      17.150000000000002
   132   1      1.7150000000000001      12.005000000000001      18.865000000000002
   133   4                       0      10.290000000000001      20.580000000000002
   134   5      1.7150000000000001      12.005000000000001      22.295000000000002
   135   2                       0      10.290000000000001      24.010000000000002
   136   5      1.7150000000000001      12.005000000000001      25.725000000000001
   137   3                       0      10.290000000000001      27.440000000000001
   138   2      1.7150000000000001      12.005000000000001      29.155000000000001
   139   5                       0      10.290000000000001      30.870000000000001
   140   5      1.7150000000000001      12.005000000000001      32.585000000000001
   141   2                       0      10.290000000000001      34.300000000000004
   142   2      1.7150000000000001      12.005000000000001      36.015000000000008
   143   5                       0      10.290000000000001      37.730000000000004
   144   5      1.7150000000000001      12.005000000000001      39.445000000000007
   145   3                       0      10.290000000000001      41.160000000000004
   146   5      1.7150000000000001      12.005000000000001      42.875000000000007
   147   2                       0      10.290000000000001      44.590000000000003
   148   5      1.7150000000000001      12.005000000000001      46.305000000000007
   149   3                       0      10.290000000000001      48.020000000000003
   150   4      1.7150000000000001      12.005000000000001      49.735000000000007
   151   1                       0      10.290000000000001      51.450000000000003
   152   5      1.7150000000000001      12.005000000000001      53.165000000000006
   153   1                       0      10.290000000000001      54.880000000000003
   154   3      1.7150000000000001      12.005000000000001      56.595000000000006
   155   3                       0      10.290000000000001      58.310000000000002
   156   4      1.7150000000000001      12.005000000000001      60.025000000000006
   157   3                       0      10.290000000000001      61.740000000000002
   158   5      1.7150000000000001      12.005000000000001      63.455000000000005
   159   4                       0      10.290000000000001      65.170000000000002
   160   1      1.7150000000000001      12.005000000000001      66.885000000000005
   161   5                       0      13.720000000000001                       0
   162   4      1.7150000000000001                  15.435      1.7150000000000001
   163   4                       0      13.720000000000001      3.4300000000000002
   164   5      1.7150000000000001                  15.435      5.1450000000000005
   165   1                       0      13.720000000000001      6.8600000000000003
   166   3      1.7150000000000001                  15.435      8.5750000000000011
   167   3                       0      13.720000000000001      10.290000000000001
   168   4      1.7150000000000001                  15.435      12.005000000000001
   169   1                       0      13.720000000000001      13.720000000000001
   170   2      1.7150000000000001                  15.435                  15.435
   171   5                       0      13.720000000000001      17.150000000000002
   172   4      1.7150000000000001                  15.435      18.865000000000002
   173   5                       0      13.720000000000001      20.580000000000002
   174   3      1.7150000000000001                  15.435      22.295000000000002
   175   2                       0      13.720000000000001      24.010000000000002
   176   1      1.7150000000000001                  15.435      25.725000000000001
   177   1                       0      13.720000000000001      27.440000000000001
   178   3      1.7150000000000001                  15.435      29.155000000000001
   179   4                       0      13.720000000000001      30.870000000000001
   180   2      1.7150000000000001                  15.435      32.585000000000001
   181   4                       0      13.720000000000001      34.300000000000004
   182   5      1.7150000000000001                  15.435      36.015000000000008
   183   4                       0      13.720000000000001      37.730000000000004
   184   2      1.7150000000000001                  15.435      39.445000000000007
   185   1                       0      13.720000000000001      41.160000000000004
   186   5      1.7150000000000001                  15.435      42.875000000000007
   187   4                       0      13.720000000000001      44.590000000000003
   188   1      1.7150000000000001                  15.435      46.305000000000007
   189   2                       0      13.720000000000001      48.020000000000003
   190   4      1.7150000000000001                  15.435      49.735000000000007
   191   5                       0      13.720000000000001      51.450000000000003
   192   2      1.7150000000000001                  15.435      53.165000000000006
   193   5                       0      13.720000000000001      54.880000000000003
   194   4      1.7150000000000001                  15.435      56.595000000000006
   195   5                       0      13.720000000000001      58.310000000000002
   196   5      1.7150000000000001                  15.435      60.025000000000006
   197   1                       0      13.720000000000001      61.740000000000002
   198   3      1.7150000000000001                  15.435      63.455000000000005
   199   1                       0      13.720000000000001      65.170000000000002
   200   5      1.7150000000000001                  15.435      66.885000000000005
   201   1                       0      17.150000000000002                       0
   202   3      1.7150000000000001      18.865000000000002      1.7150000000000001
   203   1                       0      17.150000000000002      3.4300000000000002
   204   3      1.7150000000000001      18.865000000000002      5.1450000000000005
   205   4                       0      17.150000000000002      6.8600000000000003
   206   1      1.7150000000000001      18.865000000000002      8.5750000000000011
   207   4                       0      17.150000000000002      10.290000000000001
   208   1      1.7150000000000001      18.865000000000002      12.005000000000001
   209   3                       0      17.150000000000002      13.720000000000001
   210   1      1.7150000000000001      18.865000000000002                  15.435
   211   2                       0      17.150000000000002      17.150000000000002
   212   2      1.7150000000000001      18.865000000000002      18.865000000000002
   213   5                       0      17.150000000000002      20.580000000000002
   214   4      1.7150000000000001      18.865000000000002      22.295000000000002
   215   3                       0      17.150000000000002      24.010000000000002
   216   1      1.7150000000000001      18.865000000000002      25.725000000000001
   217   5                       0      17.150000000000002      27.440000000000001
   218   1      1.7150000000000001      18.865000000000002      29.155000000000001
   219   1                       0      17.150000000000002      30.870000000000001
   220   4      1.7150000000000001      18.865000000000002      32.585000000000001
   221   4                       0      17.150000000000002      34.300000000000004
   222   4      1.7150000000000001      18.865000000000002      36.015000000000008
   223   5                       0      17.150000000000002      37.730000000000004
   224   3      1.7150000000000001      18.865000000000002      39.445000000000007
   225   5                       0      17.150000000000002      41.160000000000004
   226   1      1.7150000000000001      18.865000000000002      42.875000000000007
   227   4                       0      17.150000000000002      44.590000000000003
   228   1      1.7150000000000001      18.865000000000002      46.305000000000007
   229   5                       0      17.150000000000002      48.020000000000003
   230   5      1.7150000000000001      18.865000000000002      49.735000000000007
   231   2                       0      17.150000000000002      51.450000000000003
   232   4      1.7150000000000001      18.865000000000002      53.165000000000006
   233   4                       0      17.150000000000002      54.880000000000003
   234   2      1.7150000000000001      18.865000000000002      56.595000000000006
   235   4                       0      17.150000000000002      58.310000000000002
   236   4      1.7150000000000001      18.865000000000002      60.025000000000006
   237   1                       0      17.150000000000002      61.740000000000002
   238   4      1.7150000000000001      18.865000000000002      63.455000000000005
   239   5                       0      17.150000000000002      65.170000000000002
   240   1      1.7150000000000001      18.865000000000002      66.885000000000005
   241   1                       0      20.580000000000002                       0
   242   1      1.7150000000000001      22.295000000000002      1.7150000000000001
   243   3                       0      20.580000000000002      3.4300000000000002
   244   5      1.7150000000000001      22.295000000000002      5.1450000000000005
   245   3                       0      20.580000000000002      6.8600000000000003
   246   5      1.7150000000000001      22.295000000000002      8.5750000000000011
   247   3                       0      20.580000000000002      10.290000000000001
   248   3      1.7150000000000001      22.295000000000002      12.005000000000001
   249   4                       0      20.580000000000002      13.720000000000001
   250   4      1.7150000000000001      22.295000000000002                  15.435
   251   3                       0      20.580000000000002      17.150000000000002
   252   5      1.7150000000000001      22.295000000000002      18.865000000000002
   253   1                       0      20.580000000000002      20.580000000000002
   254   1      1.7150000000000001      22.295000000000002      22.295000000000002
   255   3                       0      20.580000000000002      24.010000000000002
   256   2      1.7150000000000001      22.295000000000002      25.725000000000001
   257   4                       0      20.580000000000002      27.440000000000001
   258   1      1.7150000000000001      22.295000000000002      29.155000000000001
   259   1                       0      20.580000000000002      30.870000000000001
   260   2      1.7150000000000001      22.295000000000002      32.585000000000001
   261   1                       0      20.580000000000002      34.300000000000004
   262   2      1.7150000000000001      22.295000000000002      36.015000000000008
   263   1                       0      20.580000000000002      37.730000000000004
   264   1      1.7150000000000001      22.295000000000002      39.445000000000007
   265   5                       0      20.580000000000002      41.160000000000004
   266   5      1.7150000000000001      22.295000000000002      42.875000000000007
   267   5                       0      20.580000000000002      44.590000000000003
   268   2      1.7150000000000001      22.295000000000002      46.305000000000007
   269   1                       0      20.580000000000002      48.020000000000003
   270   4      1.7150000000000001      22.295000000000002      49.735000000000007
   271   3                       0      20.580000000000002      51.450000000000003
   272   3      1.7150000000000001      22.295000000000002      53.165000000000006
   273   3                       0      20.580000000000002      54.880000000000003
   274   1      1.7150000000000001      22.295000000000002      56.595000000000006
   275   5                       0      20.580000000000002      58.310000000000002
   276   4      1.7150000000000001      22.295000000000002      60.025000000000006
   277   1                       0      20.580000000000002      61.740000000000002
   278   1      1.7150000000000001      22.295000000000002      63.455000000000005
   279   4                       0      20.580000000000002      65.170000000000002
   280   5      1.7150000000000001      22.295000000000002      66.885000000000005
   281   5                       0      24.010000000000002                       0
   282   4      1.7150000000000001      25.725000000000001      1.7150000000000001
   283   3                       0      24.010000000000002      3.4300000000000002
   284   5      1.7150000000000001      25.725000000000001      5.1450000000000005
   285   1                       0      24.010000000000002      6.8600000000000003
   286   1      1.7150000000000001      25.725000000000001      8.5750000000000011
   287   4                       0      24.010000000000002      10.290000000000001
   288   1      1.7150000000000001      25.725000000000001      12.005000000000001
   289   4                       0      24.010000000000002      13.720000000000001
   290   1      1.7150000000000001      25.725000000000001                  15.435
   291   1                       0      24.010000000000002      17.150000000000002
   292   3      1.7150000000000001      25.725000000000001      18.865000000000002
   293   2                       0      24.010000000000002      20.580000000000002
   294   2      1.7150000000000001      25.725000000000001      22.295000000000002
   295   1                       0      24.010000000000002      24.010000000000002
   296   1      1.7150000000000001      25.725000000000001      25.725000000000001
   297   2                       0      24.010000000000002      27.440000000000001
   298   4      1.7150000000000001      25.725000000000001      29.155000000000001
   299   3                       0      24.010000000000002      30.870000000000001
   300   4      1.7150000000000001      25.725000000000001      32.585000000000001
   301   5                       0      24.010000000000002      34.300000000000004
   302   5      1.7150000000000001      25.725000000000001      36.015000000000008
   303   2                       0      24.010000000000002      37.730000000000004
   304   1      1.7150000000000001      25.725000000000001      39.445000000000007
   305   3                       0      24.010000000000002      41.160000000000004
   306   4      1.7150000000000001      25.725000000000001      42.875000000000007
   307   3                       0      24.010000000000002      44.590000000000003
   308   3      1.7150000000000001      25.725000000000001      46.305000000000007
   309   1                       0      24.010000000000002      48.020000000000003
   310   5      1.7150000000000001      25.725000000000001      49.735000000000007
   311   3                       0      24.010000000000002      51.450000000000003
   312   5      1.7150000000000001      25.725000000000001      53.165000000000006
   313   2                       0      24.010000000000002      54.880000000000003
   314   3      1.7150000000000001      25.725000000000001      56.595000000000006
   315   1                       0      24.010000000000002      58.310000000000002
   316   1      1.7150000000000001      25.725000000000001      60.025000000000006
   317   3                       0      24.010000000000002      61.740000000000002
   318   2      1.7150000000000001      25.725000000000001      63.455000000000005
   319   5                       0      24.010000000000002      65.170000000000002
   320   2      1.7150000000000001      25.725000000000001      66.885000000000005
   321   2                       0      27.440000000000001                       0
   322   2      1.7150000000000001      29.155000000000001      1.7150000000000001
   323   1                       0      27.440000000000001      3.4300000000000002
   324   3      1.7150000000000001      29.155000000000001      5.1450000000000005
   325   3                       0      27.440000000000001      6.8600000000000003
   326   3      1.7150000000000001      29.155000000000001      8.5750000000000011
   327   5                       0      27.440000000000001      10.290000000000001
   328   4      1.7150000000000001      29.155000000000001      12.005000000000001
   329   2                       0      27.440000000000001      13.720000000000001
   330   1      1.7150000000000001      29.155000000000001                  15.435
   331   3                       0      27.440000000000001      17.150000000000002
   332   2      1.7150000000000001      29.155000000000001      18.865000000000002
   333   2                       0      27.440000000000001      20.580000000000002
   334   1      1.7150000000000001      29.155000000000001      22.295000000000002
   335   4                       0      27.440000000000001      24.010000000000002
   336   1      1.7150000000000001      29.155000000000001      25.725000000000001
   337   3                       0      27.440000000000001      27.440000000000001
   338   2      1.7150000000000001      29.155000000000001      29.155000000000001
   339   1                       0      27.440000000000001      30.870000000000001
   340   3      1.7150000000000001      29.155000000000001      32.585000000000001
   341   4                       0      27.440000000000001      34.300000000000004
   342   3      1.7150000000000001      29.155000000000001      36.015000000000008
   343   3                       0      27.440000000000001      37.730000000000004
   344   4      1.7150000000000001      29.155000000000001      39.445000000000007
   345   3                       0      27.440000000000001      41.160000000000004
   346   5      1.7150000000000001      29.155000000000001      42.875000000000007
   347   2                       0      27.440000000000001      44.590000000000003
   348   2      1.7150000000000001      29.155000000000001      46.305000000000007
   349   3                       0      27.440000000000001      48.020000000000003
   350   3      1.7150000000000001      29.155000000000001      49.735000000000007
   351   5                       0      27.440000000000001      51.450000000000003
   352   4      1.7150000000000001      29.155000000000001      53.165000000000006
   353   5                       0      27.440000000000001      54.880000000000003
   354   2      1.7150000000000001      29.155000000000001      56.595000000000006
   355   5                       0      27.440000000000001      58.310000000000002
   356   5      1.7150000000000001      29.155000000000001      60.025000000000006
   357   4                       0      27.440000000000001      61.740000000000002
   358   3      1.7150000000000001      29.155000000000001      63.455000000000005
   359   5                       0      27.440000000000001      65.170000000000002