ITEM: TIMESTEP
0
ITEM: NUMBER OF ATOMS
16000
ITEM: BOX BOUNDS pp pp pp
0.0000000000000000e+00 6.6799999999999997e+01
0.0000000000000000e+00 6.6799999999999997e+01
0.0000000000000000e+00 6.6799999999999997e+01
ITEM: ATOMS id x y z
1 0.00462691 66.7812 0.0204582
2 1.72067 1.63413 1.69442
3 0.0471671 66.7783 3.3945
4 1.73979 1.67127 5.02572
5 0.100846 66.6954 6.64693
6 1.65571 1.68677 8.32883
7 0.0175138 0.0502178 10.0034
8 1.64126 1.73153 11.6612
9 66.7332 0.133799 13.3135
10 1.60941 1.75726 15.0005
11 66.7547 0.0747366 16.6957
12 1.62477 1.70032 18.3874
13 66.7483 66.7944 19.9725
14 1.56737 1.67662 21.6896
15 66.7592 0.10018 23.4811
16 1.62299 1.67436 25.073
17 66.739 0.118848 26.697
18 1.70753 1.66693 28.3207
19 0.00520238 0.0762586 30.0674
20 1.74646 1.67782 31.7883
21 0.0860411 66.762 33.4777
22 1.67973 1.65606 35.1362
23 0.0438838 66.7918 36.844
24 1.70351 1.69922 38.3859
25 0.0110342 0.0350715 40.014
26 1.7052 1.70814 41.8083
27 66.7636 0.047553 43.4417
28 1.63373 1.7 45.0231
29 0.029706 0.0268897 46.7023
30 1.67436 1.66839 48.3657
31 0.0437068 0.0587855 50.0262
32 1.64335 1.73985 51.7095
33 0.0108348 0.037172 53.4296
34 1.63003 1.65767 55.1051
35 0.0452544 66.758 56.7192
36 1.60986 1.68111 58.432
37 0.0362593 66.7383 60.1726
38 1.54305 1.6278 61.8018
39 66.7654 66.7946 63.456
40 1.61768 1.69104 65.0835
41 0.0291144 3.40305 0.0637279
42 1.75412 5.03478 1.684
43 0.0420009 3.39823 3.35693
44 1.74086 5.01314 5.03212
45 0.106656 3.4466 6.63407
46 1.68135 5.01076 8.34621
47 66.795 3.34241 10.0742
48 1.67608 5.02587 11.7654
49 66.7347 3.33307 13.3731
50 1.56078 4.98562 15.029
51 66.748 3.32626 16.6719
52 1.49421 5.04172 18.3195
53 66.7128 3.39034 20.0033
54 1.60256 5.06152 21.6792
55 66.7804 3.32199 23.4398
56 1.6272 4.99822 25.1526
57 66.7415 3.28199 26.6842
58 1.70586 4.99355 28.4055
59 0.0219567 3.29737 30.0339
60 1.73888 4.96873 31.7196
61 0.052344 3.3855 33.4589
62 1.61939 4.95317 35.0988
63 0.0451554 3.30486 36.7662
64 1.69278 4.9509 38.4812
65 0.0451536 3.35629 40.083
66 1.71435 4.9584 41.7896
67 66.7698 3.38722 43.3579
68 1.68464 4.98528 45.0512
69 0.0277953 3.31299 46.709
70 1.75338 4.90623 48.3895
71 0.00215339 3.39506 50.0378
72 1.63851 5.07871 51.7328
73 0.0341704 3.39476 53.4049
74 1.68893 5.06127 55.0899
75 0.0412976 3.35528 56.6785
76 1.70723 4.94362 58.3964
77 66.7963 3.37069 60.1681
78 1.58179 5.0851 61.8228
79 0.0266358 3.34914 63.4562
80 1.67535 5.03964 65.1101
81 66.7973 6.62413 0.019005
82 1.72957 8.39429 1.65115
83 0.0480481 6.63862 3.37148
84 1.73171 8.35406 5.0077
85 0.100202 6.66084 6.70989
86 1.70206 8.32209 8.33682
87 0.0269624 6.6637 10.012
88 1.66872 8.26831 11.737
89 66.7756 6.64177 13.4248
90 1.60526 8.33953 15.0686
91 0.0095517 6.62279 16.6556
92 1.56918 8.35134 18.3803
93 66.6689 6.55159 20.0247
94 1.57937 8.30032 21.5976
95 66.7806 6.66581 23.3997
96 1.65444 8.32066 25.1207
97 0.00264885 6.67188 26.6583
98 1.68735 8.30187 28.3058
99 0.00808429 6.6835 30.0883
100 1.7321 8.33706 31.7899
101 0.0283293 6.65334 33.4482
102 1.69718 8.3961 35.062
103 0.103427 6.69317 36.7701
104 1.70775 8.31978 38.4995
105 0.0678407 6.65442 40.195
106 1.67637 8.37159 41.8017
107 0.0199467 6.72791 43.3456
108 1.6477 8.35795 45.0581
109 0.0255252 6.67908 46.7535
110 1.65244 8.42519 48.3702
111 66.7685 6.62951 49.9585
112 1.61217 8.32781 51.7219
113 66.7975 6.67339 53.4245
114 1.70213 8.31048 55.0683
115 0.0254526 6.69259 56.7608
116 1.74445 8.33128 58.3734
117 66.7909 6.65371 60.077
118 1.66184 8.20635 61.8172
119 66.7556 6.65244 63.5067
120 1.70065 8.32848 65.1254
121 0.0443681 10.0648 0.0252415
122 1.74385 11.6553 1.65166
123 0.021125 10.0626 3.35941
124 1.74459 11.7091 5.01418
125 66.7771 10.0489 6.69288
126 1.68389 11.6738 8.31295
127 66.7805 10.0236 10.0703
128 1.64094 11.7846 11.7593
129 66.7536 9.99373 13.3115
130 1.66884 11.7057 15.0155
131 0.0245035 10.042 16.6631
132 1.69484 11.6742 18.3102
133 66.777 10.0755 19.9591
134 1.69017 11.6837 21.6632
135 66.7973 10.0003 23.404
136 1.68465 11.6872 25.0871
137 0.0404351 10.0022 26.6973
138 1.6184 11.721 28.4316
139 66.7739 9.9637 30.0816
140 1.62783 11.7723 31.6693
141 66.7947 9.97251 33.4029
142 1.67391 11.6837 35.1148
143 0.0403743 9.9141 36.7566
144 1.70724 11.6815 38.4341
145 0.0469551 9.92687 40.124
146 1.70157 11.6376 41.7685
147 0.0579854 9.98485 43.4493
148 1.66856 11.674 45.1126
149 0.0180738 9.98235 46.7031
150 1.68758 11.6971 48.3439
151 0.0208456 9.98119 49.9877
152 1.68723 11.679 51.6664
153 66.7854 10.0006 53.4394
154 1.71406 11.6336 55.106
155 66.7727 9.95203 56.7352
156 1.74659 11.6169 58.4281
157 0.0823757 9.93884 60.1679
158 1.77065 11.7012 61.8723
159 0.0688911 10.0221 63.4742
160 1.75001 11.7235 65.157
161 0.0920597 13.3265 0.0742616
162 1.71928 15.0308 1.66548
163 66.7896 13.3393 3.32914
164 1.67791 15.0593 5.02292
165 66.7203 13.3364 6.70474
166 1.66455 14.998 8.37035
167 66.7662 13.3524 10.1055
168 1.71786 14.9806 11.7005
169 66.7207 13.3971 13.2814
170 1.64987 15.0002 15.0215
171 0.043879 13.4055 16.7282
172 1.75265 15.096 18.3393
173 0.0473306 13.4002 19.9906
174 1.73668 15.0434 21.6922
175 66.7729 13.3494 23.3275
176 1.69013 15.0093 25.0536
177 0.023346 13.3808 26.7531
178 1.66901 15.0028 28.3569
179 66.7538 13.4128 30.0308
180 1.64754 14.9774 31.7159
181 66.7717 13.3842 33.4255
182 1.63995 14.9948 35.0643
183 66.7823 13.3925 36.7588
184 1.68987 14.9842 38.4662
185 66.7951 13.3532 40.1183
186 1.66567 15.0562 41.7742
187 0.132011 13.3121 43.4413
188 1.74074 15.02 45.0827
189 0.0540624 13.3569 46.7184
190 1.70508 14.9165 48.4345
191 0.0282031 13.316 50.005
192 1.70425 14.9285 51.6471
193 0.0749554 13.3399 53.4283
194 1.72333 14.9787 55.1153
195 66.7904 13.3591 56.7624
196 1.72382 14.9898 58.5177
197 0.0227024 13.29 60.1713
198 1.71197 14.9935 61.8504
199 0.0388602 13.2728 63.5049
200 1.72945 14.9901 65.1552
201 66.7981 16.7198 66.7816
202 1.6913 18.3051 1.63531
203 66.7963 16.667 3.31151
204 1.77364 18.314 5.07628
205 66.7285 16.6191 6.71693
206 1.68441 18.3471 8.32324
207 66.7831 16.6398 10.0852
208 1.70468 18.3419 11.7234
209 66.7331 16.651 13.3263
210 1.62423 18.3378 15.1082
211 66.74 16.6166 16.7068
212 1.61249 18.2819 18.3046
213 66.751 16.6962 20.0392
214 1.71733 18.3816 21.7369
215 66.7501 16.6567 23.2997
216 1.6945 18.2798 25.0028
217 66.7342 16.7142 26.7291
218 1.63697 18.3139 28.4107
219 66.7744 16.67 30.0304
220 1.65432 18.3226 31.7127
221 66.7194 16.6897 33.4161
222 1.60611 18.3375 35.0361
223 66.7619 16.6857 36.7701
224 1.63493 18.3574 38.4294
225 0.0315184 16.7156 40.1208
226 1.6807 18.3039 41.7815
227 0.0366404 16.6719 43.4067
228 1.70495 18.28 45.0972
229 0.0326193 16.601 46.7646
230 1.75254 18.2755 48.4393
231 0.0274614 16.5855 50.0026
232 1.69988 18.3249 51.6882
233 0.0521693 16.6267 53.432
234 1.71834 18.3574 55.0413
235 0.0587919 16.6729 56.7622
236 1.69397 18.3387 58.5193
237 0.0137916 16.7048 60.1975
238 1.68511 18.4303 61.8163
239 0.0156224 16.7774 63.5148
240 1.66256 18.405 65.1614
241 66.7948 19.9846 66.7465
242 1.64104 21.7052 1.64786
243 0.0461972 19.9964 3.37983
244 1.76639 21.7181 5.1211
245 0.0147796 20.07 6.57841
246 1.69249 21.7126 8.33914
247 0.00189735 19.9915 10.0782
248 1.71468 21.7434 11.7203
249 66.7369 20.0058 13.3357
250 1.61608 21.7037 14.9796
251 66.7607 20.0575 16.7175
252 1.61662 21.6997 18.3548
253 66.7271 20.0083 20.0401
254 1.65313 21.6971 21.7093
255 66.643 20.1359 23.3249
256 1.6166 21.7522 25.0243
257 0.0111526 19.9773 26.7205
258 1.67252 21.6899 28.373
259 66.7868 20.0042 30.03
260 1.60422 21.6416 31.7449
261 66.6665 19.9084 33.4055
262 1.55208 21.6623 35.0645
263 66.7436 19.9446 36.7632
264 1.67879 21.724 38.4297
265 66.7981 20.0166 40.1022
266 1.74399 21.7341 41.7196
267 0.0533 20.032 43.3757
268 1.67251 21.751 45.1553
269 0.0293247 20.0356 46.7889
270 1.70344 21.7117 48.4519
271 66.7662 20.0091 50.0663
272 1.76425 21.6 51.6704
273 66.7799 19.9984 53.3705
274 1.75597 21.6863 55.0163
275 0.0359236 20.0467 56.7624
276 1.69735 21.7204 58.5121
277 0.00227836 20.0852 60.2439
278 1.68478 21.7085 61.9075
279 66.7742 20.0731 63.5353
280 1.61295 21.7218 65.0351
281 66.7867 23.4012 66.7935
282 1.63321 25.1637 1.66689
283 0.00734472 23.3968 3.39365
284 1.65017 25.1234 5.02146
285 66.7577 23.4008 6.66316
286 1.62637 25.0752 8.3836
287 0.0442998 23.4884 10.0145
288 1.67453 25.051 11.7199
289 0.0218504 23.4021 13.3621
290 1.6949 25.0814 14.9994
291 66.7767 23.4015 16.6913
292 1.61866 25.0998 18.3484
293 66.724 23.366 19.994
294 1.63897 25.0027 21.7053
295 66.7476 23.3705 23.335
296 1.6042 24.9817 25.073
297 66.7475 23.3561 26.7573
298 1.69788 25.0756 28.3492
299 66.7907 23.4006 30.0174
300 1.6334 25.0908 31.809
301 66.7731 23.4129 33.4624
302 1.6025 25.1466 35.0729
303 66.7412 23.4171 36.7203
304 1.66713 25.0583 38.3727
305 66.7457 23.3591 40.0681
306 1.68084 25.0593 41.7884
307 66.7325 23.3552 43.42
308 1.66626 25.0461 45.1018
309 66.7718 23.4262 46.7942
310 1.62319 25.1882 48.4267
311 66.7949 23.4343 50.0652
312 1.62905 25.2496 51.7098
313 0.0452554 23.4203 53.3586
314 1.64499 25.1254 55.0196
315 66.792 23.3794 56.7279
316 1.73515 25.0252 58.4998
317 0.0389872 23.3488 60.1944
318 1.65021 25.0512 61.8337
319 66.7642 23.3583 63.48
320 1.62086 25.0302 65.0622
321 0.0145526 26.7445 66.7993
322 1.65537 28.3427 1.63814
323 66.7745 26.7576 3.32777
324 1.59504 28.3963 5.0832
325 66.7349 26.7508 6.74503
326 1.64578 28.4503 8.39125
327 0.0268795 26.7498 10.0694
328 1.64687 28.4187 11.7165
329 0.101884 26.727 13.3038
330 1.69806 28.378 14.9837
331 0.00903125 26.7583 16.7024
332 1.7329 28.4281 18.3028
333 0.0225828 26.7629 20.016
334 1.68045 28.5047 21.7181
335 0.0199043 26.7176 23.3695
336 1.70004 28.426 25.0965
337 0.0628274 26.7081 26.7089
338 1.70113 28.4073 28.3675
339 0.0400352 26.7798 30.13
340 1.71477 28.3631 31.8107
341 0.0137051 26.8639 33.4116
342 1.68182 28.4304 35.0532
343 0.0352436 26.8129 36.6933
344 1.65079 28.452 38.439
345 0.0232674 26.7621 40.0236
346 1.62617 28.5087 41.7233
347 66.794 26.7956 43.5233
348 1.62171 28.4529 45.1506
349 0.00774295 26.7716 46.7688
350 1.65776 28.4233 48.3936
351 66.7971 26.8203 50.0577
352 1.67954 28.4688 51.7026
353 66.7621 26.8123 53.3569
354 1.50651 28.4616 55.0769
355 66.7733 26.6968 56.7685
356 1.60954 28.423 58.4655
357 66.7669 26.6731 60.1589
358 1.60326 28.3914 61.7767
359 0.00402871 26.7561 63.5209
360 1.64579 28.3907 65.1293
361 66.7727 30.1107 66.7889
362 1.6673 31.7612 1.69888
363 66.7783 30.0637 3.33964
364 1.65144 31.6834 5.07359
365 0.00490767 30.1135 6.70737
366 1.65162 31.725 8.37579
367 0.00117579 30.1425 10.0693
368 1.64824 31.7418 11.6626
369 0.0164649 30.1201 13.3171
370 1.68984 31.6703 14.9881
371 0.0193938 30.0253 16.6707
372 1.70696 31.6802 18.3189
373 0.0907108 30.0335 19.9732
374 1.66942 31.7828 21.684
375 0.0118057 30.12 23.4209
376 1.66318 31.7797 25.0231
377 66.7885 30.1088 26.7434
378 1.72418 31.7744 28.3569
379 0.0274436 30.0889 30.0331
380 1.72092 31.7078 31.7809
381 0.000221141 29.9906 33.4383
382 1.73042 31.6853 35.1594
383 0.0387641 30.0404 36.7672
384 1.67341 31.6987 38.472
385 66.7618 30.0658 40.0728
386 1.58323 31.741 41.7025
387 0.0150559 30.0649 43.4864
388 1.67653 31.7658 45.1093
389 66.7154 30.0992 46.7689
390 1.64251 31.7688 48.425
391 66.7856 30.1305 50.0736
392 1.63045 31.7719 51.7013
393 66.7418 30.1729 53.4139
394 1.60117 31.7557 55.108
395 66.7512 30.1581 56.665
396 1.51276 31.8384 58.336
397 66.7693 30.2606 60.1614
398 1.6824 31.7667 61.8557
399 66.7958 30.1149 63.5273
400 1.56951 31.8167 65.1068
401 0.0126553 33.3858 0.0229001
402 1.65646 35.0415 1.7079
403 66.7525 33.4344 3.36166
404 1.67689 35.1142 5.00273
405 66.7697 33.4038 6.68924
406 1.59337 35.0197 8.41492
407 66.7774 33.3763 10.0725
408 1.59098 35.0466 11.7482
409 66.7951 33.314 13.3468
410 1.59349 35.0508 14.9468
411 0.0265303 33.3089 16.6139
412 1.61729 35.0611 18.3806
413 0.0266407 33.3615 19.9683
414 1.61887 35.0274 21.6728
415 0.00552829 33.3861 23.4242
416 1.67282 35.0614 25.0073
417 0.00372693 33.327 26.6817
418 1.71462 34.9588 28.3824
419 0.00348505 33.3013 30.0306
420 1.66508 35.0558 31.7672
421 0.0359853 33.3633 33.4734
422 1.69316 35.0202 35.2049
423 0.0186079 33.3411 36.7848
424 1.67115 35.0361 38.336
425 66.7644 33.4541 39.9951
426 1.63173 35.0868 41.8236
427 66.788 33.4589 43.478
428 1.66361 35.1005 45.1169
429 66.7309 33.4109 46.7933
430 1.64254 35.1083 48.3646
431 66.7757 33.4222 50.0215
432 1.61891 35.0213 51.7406
433 66.7794 33.3577 53.4477
434 1.57501 35.029 54.9702
435 66.7504 33.44 56.5713
436 1.58994 34.9872 58.4649
437 66.7883 33.2804 60.2899
438 1.64094 34.9929 61.8532
439 0.00196843 33.3895 63.4868
440 1.66024 35.0042 65.1263
441 66.7999 36.6566 66.7848
442 1.74575 38.3993 1.66925
443 66.7541 36.6673 3.31757
444 1.64707 38.4076 5.06113
445 66.7273 36.6985 6.75598
446 1.63187 38.4807 8.40636
447 66.7627 36.7673 10.0098
448 1.61729 38.3991 11.6883
449 0.0206446 36.7644 13.364
450 1.58573 38.4255 14.9563
451 66.7954 36.725 16.6723
452 1.60627 38.389 18.3747
453 0.0318744 36.7571 20.0305
454 1.66452 38.3635 21.6866
455 66.7605 36.7481 23.3747
456 1.6804 38.3761 25.006
457 0.0704291 36.6488 26.7215
458 1.6442 38.3215 28.325
459 0.00901343 36.7045 30.0394
460 1.67819 38.3675 31.7953
461 0.020193 36.7546 33.5121
462 1.71949 38.3676 35.129
463 0.0398728 36.7301 36.7512
464 1.73634 38.4253 38.4164
465 0.014204 36.7444 40.0827
466 1.70545 38.4424 41.7376
467 66.7897 36.7262 43.4311
468 1.6586 38.3507 45.0393
469 66.7973 36.6987 46.7477
470 1.62889 38.3439 48.4294
471 66.7546 36.7221 50.0957
472 1.61986 38.4256 51.7669
473 66.7677 36.7658 53.4053
474 1.66673 38.4598 55.0836
475 66.7985 36.7122 56.7353
476 1.67439 38.4581 58.421
477 0.0135645 36.7443 60.172
478 1.64686 38.4658 61.8068
479 66.7631 36.7119 63.4944
480 1.66691 38.4435 65.1388
481 0.0170659 40.1077 66.7874
482 1.70365 41.7453 1.66002
483 0.0471056 40.0654 3.36269
484 1.63401 41.7688 5.06369
485 66.6922 40.1076 6.77811
486 1.65743 41.7113 8.37495
487 66.7403 40.0645 9.97727
488 1.62057 41.6659 11.6494
489 66.7856 40.0841 13.3308
490 1.59272 41.741 14.967
491 0.0285628 40.0693 16.673
492 1.65629 41.7993 18.3475
493 66.7858 40.0717 20.0399
494 1.62358 41.8236 21.6825
495 66.7835 40.0753 23.3131
496 1.64703 41.7974 25.0702
497 0.025972 40.0825 26.7233
498 1.68377 41.7952 28.3524
499 0.0648972 40.0834 30.0476
500 1.76677 41.7473 31.7468
501 0.0353488 40.1146 33.5281
502 1.70622 41.8415 35.1685
503 0.0458508 40.1627 36.7539
504 1.76148 41.7979 38.4264
505 66.7734 40.1387 40.0423
506 1.71302 41.7236 41.7232
507 0.0388157 40.0691 43.4322
508 1.61771 41.7414 45.048
509 0.0161027 40.0846 46.7346
510 1.54463 41.7483 48.5064
511 66.7257 40.0037 50.1793
512 1.63459 41.7329 51.7871
513 66.7485 40.0812 53.4509
514 1.69441 41.8198 55.1036
515 0.00578455 40.0969 56.7421
516 1.7334 41.7955 58.4709
517 0.0302938 40.0997 60.1
518 1.66836 41.7999 61.7055
519 0.0197534 40.1129 63.4362
520 1.66062 41.7382 65.1556
521 0.0330087 43.4421 0.0317914
522 1.63896 45.0945 1.74268
523 66.782 43.4174 3.41939
524 1.61342 45.1113 5.04995
525 66.7324 43.4596 6.69202
526 1.65901 45.2027 8.3168
527 66.7778 43.4308 9.96514
528 1.63805 45.1436 11.6788
529 0.00279313 43.4223 13.3501
530 1.59264 45.1062 14.8904
531 66.748 43.4963 16.6433
532 1.6783 44.9911 18.4678
533 66.7115 43.3686 20.0844
534 1.67501 45.0507 21.7134
535 66.7169 43.4126 23.4007
536 1.67593 45.0408 25.0288
537 0.00135058 43.4458 26.6965
538 1.72124 45.0921 28.3425
539 0.0496794 43.4743 30.0381
540 1.77078 45.1427 31.7457
541 0.0698778 43.4101 33.4516
542 1.67266 45.0638 35.2156
543 0.0318146 43.3692 36.8181
544 1.67686 45.0299 38.4295
545 0.0230505 43.3675 40.0714
546 1.62917 45.1066 41.7411
547 66.7971 43.4036 43.4141
548 1.61401 45.162 45.0933
549 66.7275 43.4333 46.7579
550 1.60942 45.1097 48.3989
551 66.7551 43.4165 50.1303
552 1.5302 45.0929 51.8005
553 66.7123 43.4537 53.4344
554 1.6553 45.0844 55.0804
555 66.7449 43.4431 56.7688
556 1.70562 45.0405 58.4862
557 0.0285437 43.4485 60.0841
558 1.69039 45.0235 61.7574
559 0.00451226 43.4325 63.4242
560 1.68109 45.0704 65.1083
561 66.7776 46.7727 0.0184464
562 1.70332 48.4844 1.66423
563 0.0225246 46.7603 3.38347
564 1.65277 48.3971 5.01184
565 66.7835 46.7976 6.68127
566 1.66181 48.4086 8.35567
567 66.7827 46.7667 9.98651
568 1.66267 48.3969 11.6635
569 66.7851 46.7561 13.2695
570 1.66203 48.373 14.9595
571 66.7881 46.7008 16.7043
572 1.71495 48.5015 18.3657
573 66.795 46.7693 20.0577
574 1.69441 48.5077 21.7342
575 0.0066565 46.7351 23.3756
576 1.73121 48.4239 25.0333
577 0.0641799 46.7423 26.7115
578 1.7221 48.4287 28.2857
579 0.10788 46.7952 30.0241
580 1.69231 48.4278 31.8238
581 0.10271 46.7913 33.4939
582 1.6336 48.4475 35.1896
583 0.0800992 46.7581 36.8182
584 1.67859 48.4366 38.4106
585 0.0509709 46.7367 40.0799
586 1.64431 48.3995 41.708
587 66.696 46.7641 43.2681
588 1.57954 48.3511 45.1174
589 66.7109 46.7503 46.8027
590 1.61176 48.4419 48.4255
591 66.7943 46.8225 50.1257
592 1.61239 48.3957 51.7878
593 66.7135 46.7142 53.4185
594 1.61435 48.3857 55.0527
595 66.7116 46.7004 56.7804
596 1.68079 48.4652 58.4435
597 0.0359115 46.7296 60.0937
598 1.70305 48.457 61.7883
599 66.7951 46.7453 63.4376
600 1.6789 48.4608 65.1154
601 0.023604 50.1497 0.0174718
602 1.68088 51.7495 1.67476
603 0.0473736 50.099 3.31395
604 1.64151 51.6729 4.97055
605 0.0490092 50.0787 6.69704
606 1.65219 51.6746 8.36382
607 66.7999 50.0727 9.99186
608 1.64979 51.7868 11.6369
609 0.0124179 50.1469 13.3683
610 1.64616 51.8069 15.0457
611 66.7863 50.0867 16.6105
612 1.68051 51.7952 18.3072
613 66.7856 50.1797 19.9899
614 1.73154 51.7434 21.7474
615 0.02354 50.1264 23.4854
616 1.74986 51.7487 25.0972
617 0.0416167 50.0193 26.6623
618 1.61374 51.7831 28.3291
619 0.0577926 50.037 30.0562
620 1.58876 51.747 31.7796
621 0.0228046 50.1041 33.4562
622 1.64477 51.6833 35.1829
623 0.0399309 50.0804 36.8419
624 1.6481 51.7081 38.4877
625 0.028928 49.9996 40.0916
626 1.64135 51.7956 41.7318
627 66.7622 50.0413 43.4284
628 1.68459 51.7575 45.0762
629 66.7066 50.0836 46.7529
630 1.77647 51.7339 48.4269
631 0.00786114 50.075 50.0915
632 1.7624 51.7318 51.7697
633 66.7686 50.0424 53.3335
634 1.67051 51.7502 55.086
635 66.7933 50.1123 56.8148
636 1.69269 51.7895 58.4566
637 0.0761291 50.1759 60.0713
638 1.63483 51.8286 61.7826
639 66.7661 50.1439 63.4493
640 1.67823 51.8021 65.1308
641 0.0320194 53.4808 0.0390682
642 1.72219 55.0525 1.65605
643 0.0560405 53.4568 3.34145
644 1.71016 55.1608 5.02558
645 0.0255887 53.397 6.72215
646 1.70117 55.1336 8.34305
647 66.7616 53.4864 10.0189
648 1.71333 55.0785 11.6734
649 0.0453538 53.398 13.3325
650 1.6481 55.0815 15.029
651 0.0332241 53.4638 16.6456
652 1.70175 55.1193 18.3335
653 66.7714 53.4646 19.989
654 1.71093 55.0992 21.6768
655 66.7896 53.4004 23.3977
656 1.66204 55.0961 25.0317
657 66.7721 53.5008 26.7039
658 1.6835 55.1031 28.4722
659 66.6856 53.4574 30.1106
660 1.65384 55.1151 31.748
661 66.7426 53.4165 33.4653
662 1.6368 55.0878 35.1366
663 66.7371 53.3501 36.7971
664 1.65864 55.071 38.4057
665 66.7889 53.4738 40.1136
666 1.67692 55.0514 41.7308
667 66.7932 53.4423 43.4329
668 1.68131 55.0241 45.1188
669 66.7987 53.3859 46.7843
670 1.68296 55.091 48.4447
671 0.03155 53.3911 50.1134
672 1.67469 55.1348 51.7662
673 0.0241678 53.4693 53.3757
674 1.63958 55.0953 55.1073
675 66.772 53.4361 56.8087
676 1.61716 55.096 58.4753
677 66.8 53.4041 60.0785
678 1.60767 55.1273 61.7724
679 66.7714 53.4542 63.4524
680 1.59734 55.0791 65.1037
681 0.0421176 56.7727 0.0542989
682 1.6302 58.538 1.68889
683 0.0459902 56.7953 3.21661
684 1.68897 58.4479 5.03959
685 66.7983 56.7907 6.78589
686 1.67764 58.4054 8.3784
687 66.7589 56.7716 10.0495
688 1.75154 58.3979 11.639
689 66.7666 56.7967 13.303
690 1.76142 58.3998 15.046
691 66.7163 56.7733 16.6679
692 1.79126 58.3516 18.2833
693 66.7575 56.7967 19.9605
694 1.71567 58.4245 21.6394
695 0.0642503 56.7929 23.3122
696 1.73258 58.4598 25.1131
697 0.0117367 56.7554 26.7659
698 1.73189 58.3843 28.4857
699 66.6842 56.6855 30.1119
700 1.66429 58.4193 31.7524
701 66.7578 56.7905 33.4108
702 1.61691 58.4417 35.0685
703 66.7817 56.8633 36.7937
704 1.64641 58.4423 38.417
705 66.7688 56.7706 40.076
706 1.63694 58.4888 41.7657
707 0.0220231 56.7301 43.4493
708 1.62929 58.5528 45.107
709 66.797 56.8234 46.7304
710 1.69469 58.523 48.4082
711 0.00480836 56.862 50.0916
712 1.65234 58.4736 51.7242
713 66.7969 56.7809 53.4548
714 1.59065 58.5048 55.1386
715 66.7692 56.8016 56.7549
716 1.60974 58.4761 58.4246
717 66.7424 56.8131 60.1141
718 1.65607 58.4347 61.793
719 66.7323 56.7605 63.4472
720 1.61818 58.4387 65.084
721 0.0455147 60.1639 66.7458
722 1.57062 61.7072 1.66706
723 66.7844 60.1385 3.39582
724 1.67778 61.692 5.06579
725 0.0177016 60.1172 6.70367
726 1.7198 61.7954 8.31434
727 66.7816 60.0674 10.0042
728 1.71881 61.8042 11.6466
729 0.00230094 60.0543 13.3001
730 1.6142 61.8133 14.9635
731 0.00604217 60.1308 16.714
732 1.63388 61.8949 18.3638
733 66.7999 60.0796 19.9625
734 1.62749 61.8441 21.6399
735 0.0128493 60.1404 23.3586
736 1.73701 61.7883 25.1193
737 0.0383442 60.1407 26.7753
738 1.75483 61.8301 28.4514
739 0.00667467 60.1807 30.0864
740 1.72849 61.8165 31.79
741 66.7855 60.182 33.4515
742 1.68526 61.8135 35.094
743 0.0487631 60.1259 36.7582
744 1.62147 61.8275 38.3708
745 66.7784 60.0696 40.0107
746 1.64393 61.8238 41.7329
747 0.00599445 60.1899 43.4595
748 1.5887 61.8188 45.1293
749 0.015991 60.1925 46.7982
750 1.71437 61.7386 48.353
751 66.7618 60.169 50.0687
752 1.637 61.7574 51.7525
753 66.7453 60.1029 53.452
754 1.65046 61.7447 55.1251
755 66.7206 60.1191 56.806
756 1.6599 61.7111 58.4806
757 66.7552 60.1004 60.1204
758 1.64041 61.7498 61.7477
759 66.7372 60.1106 63.4601
760 1.68088 61.8018 65.1224
761 0.0350993 63.3935 66.7947
762 1.72011 65.1378 1.66829
763 0.036559 63.4321 3.38181
764 1.68016 65.1568 5.00882
765 0.0251435 63.4613 6.62117
766 1.58744 65.1284 8.37177
767 66.7743 63.4567 9.99432
768 1.60732 65.1041 11.6628
769 66.735 63.4434 13.3738
770 1.52498 65.1495 15.0619
771 66.7425 63.495 16.6766
772 1.57677 65.1354 18.3181
773 66.7384 63.5644 19.9995
774 1.63043 65.1685 21.7378
775 66.7414 63.4855 23.4464
776 1.65129 65.2203 25.1325
777 66.74 63.4789 26.7323
778 1.70162 65.2073 28.3922
779 66.7828 63.4939 30.0586
780 1.73571 65.1215 31.7812
781 66.7939 63.4553 33.4384
782 1.70368 65.201 35.079
783 0.0295869 63.5594 36.6669
784 1.68563 65.1804 38.3727
785 0.00813909 63.5353 40.0295
786 1.64418 65.1528 41.7917
787 66.7925 63.442 43.5468
788 1.61889 65.2165 45.1334
789 66.7143 63.4657 46.7461
790 1.67795 65.1914 48.3427
791 66.7657 63.3741 49.9391
792 1.5791 65.0943 51.7266
793 0.00251273 63.3536 53.5031
794 1.65562 65.1081 55.1331
795 66.7873 63.3749 56.8127
796 1.62014 65.0921 58.403
797 0.0749123 63.4518 60.1066
798 1.59384 65.1475 61.8236
799 0.0499999 63.4443 63.4306
800 1.60335 65.1413 65.1106
801 3.39494 0.0314093 66.7212
802 5.01589 1.67573 1.691
803 3.38032 66.7943 3.40289
804 4.9909 1.70938 4.96261
805 3.38523 66.7419 6.68692
806 4.97045 1.70371 8.39654
807 3.24238 66.7692 9.9985
808 4.92341 1.68612 11.6638
809 3.16778 0.0653384 13.2912
810 4.89108 1.69055 14.9825
811 3.25613 66.7677 16.7172
812 5.00956 1.6887 18.3899
813 3.26096 0.00721783 20.046
814 4.98139 1.70589 21.6929
815 3.33154 0.0665698 23.4068
816 5.10537 1.72451 25.0701
817 3.40709 0.00792069 26.709
818 4.9962 1.69499 28.3665
819 3.39041 0.0652695 30.1074
820 5.01508 1.65599 31.8263
821 3.32983 0.0365467 33.4326
822 5.00257 1.63113 35.0923
823 3.33183 0.000237072 36.7539
824 4.97608 1.68712 38.4363
825 3.3429 0.0396464 40.0609
826 5.00284 1.84008 41.7433
827 3.43415 0.0195377 43.47
828 5.08146 1.81534 45.0547
829 3.32228 0.122282 46.5943
830 5.0014 1.70155 48.3937
831 3.24524 0.101769 50.1039
832 4.93716 1.73935 51.7837
833 3.2296 0.0017699 53.4233
834 4.95895 1.66808 55.0758
835 3.29849 0.0302919 56.7921
836 5.0375 1.67816 58.429
837 3.27977 66.7389 60.0928
838 5.07391 1.60844 61.7511
839 3.31612 66.7966 63.4324
840 5.13528 1.65223 65.0629
841 3.38018 3.295 66.7609
842 5.0603 5.06014 1.72078
843 3.34032 3.39385 3.38646
844 5.05983 5.04491 5.01725
845 3.3471 3.37807 6.70026
846 4.97817 5.01693 8.27145
847 3.23373 3.39916 10.0133
848 4.99006 5.00872 11.7641
849 3.26522 3.38113 13.3625
850 4.98034 5.05375 15.0089
851 3.29502 3.41794 16.7293
852 5.05825 5.06192 18.3154
853 3.33543 3.44958 20.0457
854 5.02056 5.06051 21.7564
855 3.28461 3.32753 23.3623
856 5.01641 5.05277 25.0369
857 3.32066 3.33244 26.6619
858 4.96413 5.05539 28.4024
859 3.37637 3.33684 30.1039
860 5.00082 5.02887 31.7241
861 3.37906 3.37858 33.4638
862 5.06306 5.01053 35.1343
863 3.36229 3.3885 36.7567
864 4.97405 5.00948 38.5067
865 3.35098 3.34955 40.0812
866 5.00394 4.99599 41.7242
867 3.43243 3.43282 43.4356
868 5.00952 4.98413 45.1106
869 3.34219 3.26832 46.6785
870 5.00862 4.92931 48.3587
871 3.28856 3.32069 50.0423
872 4.92429 5.00975 51.7815
873 3.15253 3.31349 53.4748
874 4.9143 5.01017 55.1125
875 3.29381 3.29294 56.7346
876 4.95651 4.97662 58.4198
877 3.31848 3.33813 60.1341
878 5.05153 4.98139 61.7816
879 3.3266 3.31283 63.4397
880 5.0069 5.01648 65.1235
881 3.41558 6.68669 66.7781
882 5.07722 8.33889 1.642
883 3.37437 6.75365 3.40523
884 5.10598 8.33169 5.03452
885 3.34981 6.6784 6.66092
886 5.11886 8.39706 8.30457
887 3.37201 6.68814 9.98584
888 5.03976 8.33153 11.7152
889 3.30438 6.65975 13.5091
890 5.01919 8.41614 15.0395
891 3.30922 6.65914 16.7425
892 5.04411 8.41256 18.3201
893 3.43293 6.67468 19.9616
894 5.04185 8.36759 21.7065
895 3.27878 6.70435 23.4145
896 5.00283 8.33338 25.0872
897 3.3279 6.671 26.7256
898 4.99673 8.3307 28.3533
899 3.34095 6.66343 30.0423
900 5.01868 8.33718 31.6743
901 3.34336 6.63036 33.4815
902 5.00623 8.32074 35.2001
903 3.23514 6.6176 36.7384
904 4.93614 8.28981 38.4345
905 3.25971 6.60602 40.1666
906 4.98001 8.2867 41.744
907 3.34211 6.674 43.3969
908 4.97744 8.33199 45.0389
909 3.31658 6.64489 46.7489
910 5.01593 8.35049 48.3775
911 3.3387 6.69558 50.013
912 5.04774 8.33359 51.7865
913 3.28252 6.70999 53.4659
914 4.95568 8.33977 55.1241
915 3.33833 6.69415 56.7598
916 4.98935 8.37167 58.3646
917 3.3931 6.62186 60.0799
918 5.00785 8.30246 61.7697
919 3.42398 6.66528 63.4873
920 5.07742 8.34966 65.1396
921 3.46795 10.0528 66.7979
922 5.06992 11.7446 1.70165
923 3.42429 9.98659 3.33899
924 5.03267 11.6688 5.02522
925 3.37989 9.95976 6.62797
926 5.04035 11.6716 8.2839
927 3.33073 10.0343 10.0512
928 5.04675 11.6692 11.7671
929 3.35441 10.0133 13.403
930 5.04096 11.7088 15.0377
931 3.35288 10.0388 16.692
932 5.01714 11.6899 18.2204
933 3.40799 10.053 20.0057
934 5.05799 11.7445 21.8341
935 3.31148 9.98466 23.384
936 5.06322 11.708 25.0649
937 3.30098 10.0082 26.7092
938 5.03536 11.6564 28.3113
939 3.33757 10.0114 30.0575
940 5.0399 11.6815 31.6384
941 3.42892 10.0439 33.4213
942 5.0116 11.6483 35.1976
943 3.30925 10.0044 36.7879
944 5.00778 11.7096 38.4076
945 3.39568 10.0389 40.1015
946 4.9925 11.6733 41.7647
947 3.32135 9.9638 43.4198
948 4.97414 11.6395 45.0887
949 3.28788 10.0186 46.7231
950 4.98756 11.6547 48.3891
951 3.36901 10.0064 50.046
952 5.03409 11.6833 51.7839
953 3.32476 9.99151 53.4106
954 5.0298 11.6648 55.0866
955 3.36617 9.97558 56.7146
956 5.04676 11.6114 58.4075
957 3.37938 9.94107 60.1741
958 5.07601 11.6486 61.8631
959 3.44888 9.96912 63.4319
960 5.08199 11.6725 65.0706
961 3.40137 13.3473 0.0721814
962 5.05772 15.0592 1.70166
963 3.39542 13.3909 3.31824
964 5.0615 15.0376 4.99232
965 3.40412 13.4335 6.67794
966 5.10229 14.9739 8.35788
967 3.36894 13.3318 10.0318
968 5.06029 14.9994 11.6565
969 3.39284 13.3587 13.3449
970 5.07461 14.9477 15.0825
971 3.36417 13.3833 16.7171
972 5.06956 15.0058 18.206
973 3.40064 13.3658 19.9747
974 5.07443 14.9917 21.7749
975 3.41049 13.3853 23.4393
976 5.02836 14.9766 25.1162
977 3.38903 13.3278 26.7272
978 4.95989 14.9467 28.2748
979 3.38351 13.336 29.9893
980 4.99774 15.0022 31.6711
981 3.41849 13.2903 33.4171
982 5.01976 15.0177 35.1287
983 3.39051 13.3158 36.8039
984 5.03249 15.0202 38.4929
985 3.31934 13.3098 40.1036
986 4.9645 14.9986 41.6841
987 3.35525 13.3432 43.4122
988 4.95719 15.0164 45.1607
989 3.34016 13.3256 46.7408
990 5.02293 14.9852 48.4164
991 3.34809 13.2979 50.0691
992 5.0291 14.9593 51.6992
993 3.31079 13.3757 53.3943
994 5.04623 14.9264 55.0155
995 3.37089 13.3353 56.7651
996 5.03757 14.9863 58.4438
997 3.46897 13.3096 60.2273
998 5.03892 15.0178 61.8968
999 3.41164 13.3016 63.4984
1000 5.02937 15.0213 65.0942
1001 3.34896 16.7081 0.0425538
1002 5.04543 18.3036 1.68136
1003 3.39696 16.6908 3.32695
1004 5.03949 18.3684 5.02783
1005 3.42683 16.6742 6.64367
1006 5.00289 18.3922 8.23758
1007 3.32029 16.6337 10.0154
1008 4.98952 18.3695 11.7195
1009 3.38267 16.6472 13.4252
1010 5.05092 18.3886 15.0631
1011 3.41585 16.6442 16.644
1012 5.08368 18.3084 18.2456
1013 3.43047 16.646 19.9609
1014 5.03393 18.3383 21.7105
1015 3.4139 16.6272 23.4313
1016 4.98172 18.2553 25.0764
1017 3.30526 16.6356 26.6862
1018 5.00163 18.3764 28.373
1019 3.33135 16.6466 30.0003
1020 4.98993 18.3791 31.7308
1021 3.34135 16.6432 33.4587
1022 5.10188 18.3753 35.049
1023 3.32915 16.7117 36.761
1024 5.04559 18.4 38.431
1025 3.22431 16.7214 40.0785
1026 4.93373 18.3372 41.7576
1027 3.33513 16.6432 43.396
1028 4.99199 18.2906 45.1188
1029 3.35042 16.6272 46.8043
1030 5.02256 18.2491 48.3889
1031 3.34795 16.6304 50.0685
1032 5.02869 18.2962 51.7419
1033 3.32329 16.6189 53.3826
1034 5.03015 18.332 55.0606
1035 3.36956 16.5909 56.7188
1036 5.03703 18.3071 58.436
1037 3.39422 16.7027 60.2052
1038 5.04712 18.3579 61.8637
1039 3.30849 16.7579 63.4779
1040 5.05948 18.3202 65.1279
1041 3.34503 20.0177 66.7801
1042 5.00476 21.7325 1.70242
1043 3.33965 20.0125 3.35696
1044 5.0016 21.6075 5.08122
1045 3.34349 20.0186 6.68028
1046 4.9939 21.7559 8.29587
1047 3.35801 20.0365 10.0142
1048 5.00997 21.7259 11.6702
1049 3.31956 20.033 13.3898
1050 5.00747 21.6638 14.9979
1051 3.32949 20.0416 16.6661
1052 5.0128 21.698 18.3668
1053 3.33849 20.0014 19.9729
1054 5.01917 21.6735 21.6786
1055 3.415 20.081 23.4653
1056 5.08307 21.8365 25.0917
1057 3.30182 20.0078 26.6595
1058 4.9832 21.7307 28.3854
1059 3.33859 20.0631 30.0807