(written by ASE)

16000 atoms
5 atom types

0.0      67.200000000000003  xlo xhi
0.0      67.200000000000003  ylo yhi
0.0      67.200000000000003  zlo zhi

Atoms # atomic

     1   2                       0                       0                       0
     2   1      1.6799999999999999      1.6799999999999999      1.6799999999999999
     3   5                       0                       0      3.3599999999999999
     4   5      1.6799999999999999      1.6799999999999999                    5.04
     5   4                       0                       0      6.7199999999999998
     6   2      1.6799999999999999      1.6799999999999999      8.4000000000000004
     7   5                       0                       0                   10.08
     8   3      1.6799999999999999      1.6799999999999999                   11.76
     9   5                       0                       0                   13.44
    10   3      1.6799999999999999      1.6799999999999999      15.119999999999999
    11   2                       0                       0      16.800000000000001
    12   1      1.6799999999999999      1.6799999999999999                   18.48
    13   5                       0                       0                   20.16
    14   1      1.6799999999999999      1.6799999999999999                   21.84
    15   4                       0                       0                   23.52
    16   4      1.6799999999999999      1.6799999999999999      25.199999999999999
    17   4                       0                       0      26.879999999999999
    18   2      1.6799999999999999      1.6799999999999999      28.559999999999999
    19   4                       0                       0      30.239999999999998
    20   2      1.6799999999999999      1.6799999999999999      31.919999999999998
    21   5                       0                       0      33.600000000000001
    22   4      1.6799999999999999      1.6799999999999999      35.280000000000001
    23   5                       0                       0      36.960000000000001
    24   5      1.6799999999999999      1.6799999999999999      38.640000000000001
    25   1                       0                       0                   40.32
    26   2      1.6799999999999999      1.6799999999999999                      42
    27   5                       0                       0                   43.68
    28   4      1.6799999999999999      1.6799999999999999      45.359999999999999
    29   4                       0                       0      47.039999999999999
    30   2      1.6799999999999999      1.6799999999999999      48.719999999999999
    31   3                       0                       0      50.399999999999999
    32   5      1.6799999999999999      1.6799999999999999      52.079999999999998
    33   3                       0                       0      53.759999999999998
    34   4      1.6799999999999999      1.6799999999999999      55.439999999999998
    35   1                       0                       0      57.119999999999997
    36   4      1.6799999999999999      1.6799999999999999      58.799999999999997
    37   4                       0                       0      60.479999999999997
    38   2      1.6799999999999999      1.6799999999999999      62.159999999999997
    39   4                       0                       0      63.839999999999996
    40   1      1.6799999999999999      1.6799999999999999      65.519999999999996
    41   2                       0      3.3599999999999999                       0
    42   3      1.6799999999999999                    5.04      1.6799999999999999
    43   4                       0      3.3599999999999999      3.3599999999999999
    44   3      1.6799999999999999                    5.04                    5.04
    45   4                       0      3.3599999999999999      6.7199999999999998
    46   2      1.6799999999999999                    5.04      8.4000000000000004
    47   5                       0      3.3599999999999999                   10.08
    48   3      1.6799999999999999                    5.04                   11.76
    49   1                       0      3.3599999999999999                   13.44
    50   2      1.6799999999999999                    5.04      15.119999999999999
    51   5                       0      3.3599999999999999      16.800000000000001
    52   1      1.6799999999999999                    5.04                   18.48
    53   4                       0      3.3599999999999999                   20.16
    54   3      1.6799999999999999                    5.04                   21.84
    55   1                       0      3.3599999999999999                   23.52
    56   4      1.6799999999999999                    5.04      25.199999999999999
    57   1                       0      3.3599999999999999      26.879999999999999
    58   3      1.6799999999999999                    5.04      28.559999999999999
    59   3                       0      3.3599999999999999      30.239999999999998
    60   5      1.6799999999999999                    5.04      31.919999999999998
    61   4                       0      3.3599999999999999      33.600000000000001
    62   2      1.6799999999999999                    5.04      35.280000000000001
    63   2                       0      3.3599999999999999      36.960000000000001
    64   3      1.6799999999999999                    5.04      38.640000000000001
    65   4                       0      3.3599999999999999                   40.32
    66   1      1.6799999999999999                    5.04                      42
    67   3                       0      3.3599999999999999                   43.68
    68   1      1.6799999999999999                    5.04      45.359999999999999
    69   5                       0      3.3599999999999999      47.039999999999999
    70   2      1.6799999999999999                    5.04      48.719999999999999
    71   3                       0      3.3599999999999999      50.399999999999999
    72   1      1.6799999999999999                    5.04      52.079999999999998
    73   4                       0      3.3599999999999999      53.759999999999998
    74   2      1.6799999999999999                    5.04      55.439999999999998
    75   2                       0      3.3599999999999999      57.119999999999997
    76   2      1.6799999999999999                    5.04      58.799999999999997
    77   1                       0      3.3599999999999999      60.479999999999997
    78   1      1.6799999999999999                    5.04      62.159999999999997
    79   1                       0      3.3599999999999999      63.839999999999996
    80   4      1.6799999999999999                    5.04      65.519999999999996
    81   3                       0      6.7199999999999998                       0
    82   5      1.6799999999999999      8.4000000000000004      1.6799999999999999
    83   1                       0      6.7199999999999998      3.3599999999999999
    84   4      1.6799999999999999      8.4000000000000004                    5.04
    85   5                       0      6.7199999999999998      6.7199999999999998
    86   3      1.6799999999999999      8.4000000000000004      8.4000000000000004
    87   1                       0      6.7199999999999998                   10.08
    88   5      1.6799999999999999      8.4000000000000004                   11.76
    89   3                       0      6.7199999999999998                   13.44
    90   3      1.6799999999999999      8.4000000000000004      15.119999999999999
    91   3                       0      6.7199999999999998      16.800000000000001
    92   4      1.6799999999999999      8.4000000000000004                   18.48
    93   3                       0      6.7199999999999998                   20.16
    94   1      1.6799999999999999      8.4000000000000004                   21.84
    95   2                       0      6.7199999999999998                   23.52
    96   5      1.6799999999999999      8.4000000000000004      25.199999999999999
    97   1                       0      6.7199999999999998      26.879999999999999
    98   3      1.6799999999999999      8.4000000000000004      28.559999999999999
    99   4                       0      6.7199999999999998      30.239999999999998
   100   4      1.6799999999999999      8.4000000000000004      31.919999999999998
   101   3                       0      6.7199999999999998      33.600000000000001
   102   3      1.6799999999999999      8.4000000000000004      35.280000000000001
   103   1                       0      6.7199999999999998      36.960000000000001
   104   1      1.6799999999999999      8.4000000000000004      38.640000000000001
   105   4                       0      6.7199999999999998                   40.32
   106   2      1.6799999999999999      8.4000000000000004                      42
   107   4                       0      6.7199999999999998                   43.68
   108   5      1.6799999999999999      8.4000000000000004      45.359999999999999
   109   4                       0      6.7199999999999998      47.039999999999999
   110   3      1.6799999999999999      8.4000000000000004      48.719999999999999
   111   4                       0      6.7199999999999998      50.399999999999999
   112   1      1.6799999999999999      8.4000000000000004      52.079999999999998
   113   3                       0      6.7199999999999998      53.759999999999998
   114   5      1.6799999999999999      8.4000000000000004      55.439999999999998
   115   3                       0      6.7199999999999998      57.119999999999997
   116   5      1.6799999999999999      8.4000000000000004      58.799999999999997
   117   1                       0      6.7199999999999998      60.479999999999997
   118   4      1.6799999999999999      8.4000000000000004      62.159999999999997
   119   4                       0      6.7199999999999998      63.839999999999996
   120   4      1.6799999999999999      8.4000000000000004      65.519999999999996
   121   1                       0                   10.08                       0
   122   1      1.6799999999999999                   11.76      1.6799999999999999
   123   4                       0                   10.08      3.3599999999999999
   124   3      1.6799999999999999                   11.76                    5.04
   125   1                       0                   10.08      6.7199999999999998
   126   2      1.6799999999999999                   11.76      8.4000000000000004
   127   1                       0                   10.08                   10.08
   128   2      1.6799999999999999                   11.76                   11.76
   129   3                       0                   10.08                   13.44
   130   3      1.6799999999999999                   11.76      15.119999999999999
   131   5                       0                   10.08      16.800000000000001
   132   2      1.6799999999999999                   11.76                   18.48
   133   3                       0                   10.08                   20.16
   134   2      1.6799999999999999                   11.76                   21.84
   135   4                       0                   10.08                   23.52
   136   1      1.6799999999999999                   11.76      25.199999999999999
   137   1                       0                   10.08      26.879999999999999
   138   3      1.6799999999999999                   11.76      28.559999999999999
   139   4                       0                   10.08      30.239999999999998
   140   5      1.6799999999999999                   11.76      31.919999999999998
   141   2                       0                   10.08      33.600000000000001
   142   1      1.6799999999999999                   11.76      35.280000000000001
   143   1                       0                   10.08      36.960000000000001
   144   3      1.6799999999999999                   11.76      38.640000000000001
   145   4                       0                   10.08                   40.32
   146   2      1.6799999999999999                   11.76                      42
   147   1                       0                   10.08                   43.68
   148   5      1.6799999999999999                   11.76      45.359999999999999
   149   5                       0                   10.08      47.039999999999999
   150   1      1.6799999999999999                   11.76      48.719999999999999
   151   3                       0                   10.08      50.399999999999999
   152   2      1.6799999999999999                   11.76      52.079999999999998
   153   5                       0                   10.08      53.759999999999998
   154   1      1.6799999999999999                   11.76      55.439999999999998
   155   2                       0                   10.08      57.119999999999997
   156   3      1.6799999999999999                   11.76      58.799999999999997
   157   3                       0                   10.08      60.479999999999997
   158   4      1.6799999999999999                   11.76      62.159999999999997
   159   5                       0                   10.08      63.839999999999996
   160   4      1.6799999999999999                   11.76      65.519999999999996
   161   5                       0                   13.44                       0
   162   5      1.6799999999999999      15.119999999999999      1.6799999999999999
   163   5                       0                   13.44      3.3599999999999999
   164   2      1.6799999999999999      15.119999999999999                    5.04
   165   4                       0                   13.44      6.7199999999999998
   166   2      1.6799999999999999      15.119999999999999      8.4000000000000004
   167   1                       0                   13.44                   10.08
   168   1      1.6799999999999999      15.119999999999999                   11.76
   169   4                       0                   13.44                   13.44
   170   1      1.6799999999999999      15.119999999999999      15.119999999999999
   171   5                       0                   13.44      16.800000000000001
   172   2      1.6799999999999999      15.119999999999999                   18.48
   173   1                       0                   13.44                   20.16
   174   5      1.6799999999999999      15.119999999999999                   21.84
   175   1                       0                   13.44                   23.52
   176   1      1.6799999999999999      15.119999999999999      25.199999999999999
   177   1                       0                   13.44      26.879999999999999
   178   2      1.6799999999999999      15.119999999999999      28.559999999999999
   179   5                       0                   13.44      30.239999999999998
   180   5      1.6799999999999999      15.119999999999999      31.919999999999998
   181   3                       0                   13.44      33.600000000000001
   182   2      1.6799999999999999      15.119999999999999      35.280000000000001
   183   5                       0                   13.44      36.960000000000001
   184   2      1.6799999999999999      15.119999999999999      38.640000000000001
   185   2                       0                   13.44                   40.32
   186   5      1.6799999999999999      15.119999999999999                      42
   187   2                       0                   13.44                   43.68
   188   5      1.6799999999999999      15.119999999999999      45.359999999999999
   189   5                       0                   13.44      47.039999999999999
   190   4      1.6799999999999999      15.119999999999999      48.719999999999999
   191   2                       0                   13.44      50.399999999999999
   192   1      1.6799999999999999      15.119999999999999      52.079999999999998
   193   2                       0                   13.44      53.759999999999998
   194   3      1.6799999999999999      15.119999999999999      55.439999999999998
   195   3                       0                   13.44      57.119999999999997
   196   1      1.6799999999999999      15.119999999999999      58.799999999999997
   197   3                       0                   13.44      60.479999999999997
   198   5      1.6799999999999999      15.119999999999999      62.159999999999997
   199   5                       0                   13.44      63.839999999999996
   200   1      1.6799999999999999      15.119999999999999      65.519999999999996
   201   3                       0      16.800000000000001                       0
   202   4      1.6799999999999999                   18.48      1.6799999999999999
   203   4                       0      16.800000000000001      3.3599999999999999
   204   5      1.6799999999999999                   18.48                    5.04
   205   1                       0      16.800000000000001      6.7199999999999998
   206   2      1.6799999999999999                   18.48      8.4000000000000004
   207   2                       0      16.800000000000001                   10.08
   208   5      1.6799999999999999                   18.48                   11.76
   209   3                       0      16.800000000000001                   13.44
   210   5      1.6799999999999999                   18.48      15.119999999999999
   211   3                       0      16.800000000000001      16.800000000000001
   212   2      1.6799999999999999                   18.48                   18.48
   213   5                       0      16.800000000000001                   20.16
   214   4      1.6799999999999999                   18.48                   21.84
   215   5                       0      16.800000000000001                   23.52
   216   2      1.6799999999999999                   18.48      25.199999999999999
   217   1                       0      16.800000000000001      26.879999999999999
   218   2      1.6799999999999999                   18.48      28.559999999999999
   219   4                       0      16.800000000000001      30.239999999999998
   220   1      1.6799999999999999                   18.48      31.919999999999998
   221   5                       0      16.800000000000001      33.600000000000001
   222   3      1.6799999999999999                   18.48      35.280000000000001
   223   5                       0      16.800000000000001      36.960000000000001
   224   5      1.6799999999999999                   18.48      38.640000000000001
   225   4                       0      16.800000000000001                   40.32
   226   1      1.6799999999999999                   18.48                      42
   227   4                       0      16.800000000000001                   43.68
   228   3      1.6799999999999999                   18.48      45.359999999999999
   229   1                       0      16.800000000000001      47.039999999999999
   230   5      1.6799999999999999                   18.48      48.719999999999999
   231   3                       0      16.800000000000001      50.399999999999999
   232   4      1.6799999999999999                   18.48      52.079999999999998
   233   3                       0      16.800000000000001      53.759999999999998
   234   2      1.6799999999999999                   18.48      55.439999999999998
   235   2                       0      16.800000000000001      57.119999999999997
   236   4      1.6799999999999999                   18.48      58.799999999999997
   237   3                       0      16.800000000000001      60.479999999999997
   238   4      1.6799999999999999                   18.48      62.159999999999997
   239   5                       0      16.800000000000001      63.839999999999996
   240   3      1.6799999999999999                   18.48      65.519999999999996
   241   5                       0                   20.16                       0
   242   1      1.6799999999999999                   21.84      1.6799999999999999
   243   1                       0                   20.16      3.3599999999999999
   244   4      1.6799999999999999                   21.84                    5.04
   245   4                       0                   20.16      6.7199999999999998
   246   4      1.6799999999999999                   21.84      8.4000000000000004
   247   4                       0                   20.16                   10.08
   248   5      1.6799999999999999                   21.84                   11.76
   249   3                       0                   20.16                   13.44
   250   5      1.6799999999999999                   21.84      15.119999999999999
   251   4                       0                   20.16      16.800000000000001
   252   2      1.6799999999999999                   21.84                   18.48
   253   4                       0                   20.16                   20.16
   254   3      1.6799999999999999                   21.84                   21.84
   255   1                       0                   20.16                   23.52
   256   1      1.6799999999999999                   21.84      25.199999999999999
   257   1                       0                   20.16      26.879999999999999
   258   4      1.6799999999999999                   21.84      28.559999999999999
   259   3                       0                   20.16      30.239999999999998
   260   3      1.6799999999999999                   21.84      31.919999999999998
   261   3                       0                   20.16      33.600000000000001
   262   4      1.6799999999999999                   21.84      35.280000000000001
   263   2                       0                   20.16      36.960000000000001
   264   3      1.6799999999999999                   21.84      38.640000000000001
   265   2                       0                   20.16                   40.32
   266   4      1.6799999999999999                   21.84                      42
   267   3                       0                   20.16                   43.68
   268   4      1.6799999999999999                   21.84      45.359999999999999
   269   4                       0                   20.16      47.039999999999999
   270   3      1.6799999999999999                   21.84      48.719999999999999
   271   2                       0                   20.16      50.399999999999999
   272   5      1.6799999999999999                   21.84      52.079999999999998
   273   2                       0                   20.16      53.759999999999998
   274   3      1.6799999999999999                   21.84      55.439999999999998
   275   5                       0                   20.16      57.119999999999997
   276   4      1.6799999999999999                   21.84      58.799999999999997
   277   4                       0                   20.16      60.479999999999997
   278   4      1.6799999999999999                   21.84      62.159999999999997
   279   4                       0                   20.16      63.839999999999996
   280   4      1.6799999999999999                   21.84      65.519999999999996
   281   4                       0                   23.52                       0
   282   4      1.6799999999999999      25.199999999999999      1.6799999999999999
   283   1                       0                   23.52      3.3599999999999999
   284   1      1.6799999999999999      25.199999999999999                    5.04
   285   2                       0                   23.52      6.7199999999999998
   286   2      1.6799999999999999      25.199999999999999      8.4000000000000004
   287   2                       0                   23.52                   10.08
   288   4      1.6799999999999999      25.199999999999999                   11.76
   289   5                       0                   23.52                   13.44
   290   2      1.6799999999999999      25.199999999999999      15.119999999999999
   291   2                       0                   23.52      16.800000000000001
   292   2      1.6799999999999999      25.199999999999999                   18.48
   293   2                       0                   23.52                   20.16
   294   3      1.6799999999999999      25.199999999999999                   21.84
   295   3                       0                   23.52                   23.52
   296   5      1.6799999999999999      25.199999999999999      25.199999999999999
   297   2                       0                   23.52      26.879999999999999
   298   5      1.6799999999999999      25.199999999999999      28.559999999999999
   299   4                       0                   23.52      30.239999999999998
   300   4      1.6799999999999999      25.199999999999999      31.919999999999998
   301   5                       0                   23.52      33.600000000000001
   302   4      1.6799999999999999      25.199999999999999      35.280000000000001
   303   3                       0                   23.52      36.960000000000001
   304   5      1.6799999999999999      25.199999999999999      38.640000000000001
   305   3                       0                   23.52                   40.32
   306   2      1.6799999999999999      25.199999999999999                      42
   307   1                       0                   23.52                   43.68
   308   4      1.6799999999999999      25.199999999999999      45.359999999999999
   309   5                       0                   23.52      47.039999999999999
   310   1      1.6799999999999999      25.199999999999999      48.719999999999999
   311   3                       0                   23.52      50.399999999999999
   312   4      1.6799999999999999      25.199999999999999      52.079999999999998
   313   4                       0                   23.52      53.759999999999998
   314   1      1.6799999999999999      25.199999999999999      55.439999999999998
   315   3                       0                   23.52      57.119999999999997
   316   4      1.6799999999999999      25.199999999999999      58.799999999999997
   317   5                       0                   23.52      60.479999999999997
   318   3      1.6799999999999999      25.199999999999999      62.159999999999997
   319   4                       0                   23.52      63.839999999999996
   320   2      1.6799999999999999      25.199999999999999      65.519999999999996
   321   1                       0      26.879999999999999                       0
   322   5      1.6799999999999999      28.559999999999999      1.6799999999999999
   323   1                       0      26.879999999999999      3.3599999999999999
   324   1      1.6799999999999999      28.559999999999999                    5.04
   325   2                       0      26.879999999999999      6.7199999999999998
   326   4      1.6799999999999999      28.559999999999999      8.4000000000000004
   327   3                       0      26.879999999999999                   10.08
   328   1      1.6799999999999999      28.559999999999999                   11.76
   329   4                       0      26.879999999999999                   13.44
   330   2      1.6799999999999999      28.559999999999999      15.119999999999999
   331   4                       0      26.879999999999999      16.800000000000001
   332   3      1.6799999999999999      28.559999999999999                   18.48
   333   5                       0      26.879999999999999                   20.16
   334   2      1.6799999999999999      28.559999999999999                   21.84
   335   2                       0      26.879999999999999                   23.52
   336   5      1.6799999999999999      28.559999999999999      25.199999999999999
   337   1                       0      26.879999999999999      26.879999999999999
   338   4      1.6799999999999999      28.559999999999999      28.559999999999999
   339   1                       0      26.879999999999999      30.239999999999998
   340   2      1.6799999999999999      28.559999999999999      31.919999999999998
   341   1                       0      26.879999999999999      33.600000000000001
   342   5      1.6799999999999999      28.559999999999999      35.280000000000001
   343   5                       0      26.879999999999999      36.960000000000001
   344   4      1.6799999999999999      28.559999999999999      38.640000000000001
   345   2                       0      26.879999999999999                   40.32
   346   2      1.6799999999999999      28.559999999999999                      42
   347   4                       0      26.879999999999999                   43.68
   348   5      1.6799999999999999      28.559999999999999      45.359999999999999
   349   1                       0      26.879999999999999      47.039999999999999
   350   4      1.6799999999999999      28.559999999999999      48.719999999999999
   351   4                       0      26.879999999999999      50.399999999999999
   352   3      1.6799999999999999      28.559999999999999      52.079999999999998
   353   5                       0      26.879999999999999      53.759999999999998
   354   1      1.6799999999999999      28.559999999999999      55.439999999999998
   355   3                       0      26.879999999999999      57.119999999999997
   356   5      1.6799999999999999      28.559999999999999      58.799999999999997
   357   4                       0      26.879999999999999      60.479999999999997
   358   2      1.6799999999999999      28.559999999999999      62.159999999999997
   359   1                       0      26.879999999999999      63.839999999999996