(written by ASE)

16000 atoms
5 atom types

0.0                      68  xlo xhi
0.0                      68  ylo yhi
0.0                      68  zlo zhi

Atoms # atomic

     1   1                       0                       0                       0
     2   5                     1.7                     1.7                     1.7
     3   4                       0                       0      3.3999999999999999
     4   1                     1.7                     1.7      5.0999999999999996
     5   4                       0                       0      6.7999999999999998
     6   1                     1.7                     1.7                     8.5
     7   4                       0                       0      10.199999999999999
     8   5                     1.7                     1.7      11.899999999999999
     9   1                       0                       0                    13.6
    10   4                     1.7                     1.7      15.299999999999999
    11   3                       0                       0                      17
    12   2                     1.7                     1.7      18.699999999999999
    13   3                       0                       0      20.399999999999999
    14   2                     1.7                     1.7      22.099999999999998
    15   2                       0                       0      23.800000000000001
    16   2                     1.7                     1.7                    25.5
    17   3                       0                       0      27.199999999999999
    18   5                     1.7                     1.7      28.899999999999999
    19   1                       0                       0      30.599999999999998
    20   2                     1.7                     1.7      32.299999999999997
    21   4                       0                       0                      34
    22   5                     1.7                     1.7      35.700000000000003
    23   5                       0                       0      37.399999999999999
    24   5                     1.7                     1.7      39.100000000000001
    25   5                       0                       0      40.799999999999997
    26   4                     1.7                     1.7                    42.5
    27   3                       0                       0      44.199999999999996
    28   3                     1.7                     1.7      45.899999999999999
    29   2                       0                       0      47.600000000000001
    30   5                     1.7                     1.7      49.300000000000004
    31   2                       0                       0                      51
    32   3                     1.7                     1.7      52.700000000000003
    33   5                       0                       0      54.399999999999999
    34   4                     1.7                     1.7      56.100000000000001
    35   4                       0                       0      57.799999999999997
    36   5                     1.7                     1.7                    59.5
    37   4                       0                       0      61.199999999999996
    38   1                     1.7                     1.7      62.899999999999999
    39   4                       0                       0      64.599999999999994
    40   2                     1.7                     1.7      66.299999999999997
    41   1                       0      3.3999999999999999                       0
    42   3                     1.7      5.0999999999999996                     1.7
    43   1                       0      3.3999999999999999      3.3999999999999999
    44   4                     1.7      5.0999999999999996      5.0999999999999996
    45   1                       0      3.3999999999999999      6.7999999999999998
    46   2                     1.7      5.0999999999999996                     8.5
    47   4                       0      3.3999999999999999      10.199999999999999
    48   3                     1.7      5.0999999999999996      11.899999999999999
    49   5                       0      3.3999999999999999                    13.6
    50   4                     1.7      5.0999999999999996      15.299999999999999
    51   3                       0      3.3999999999999999                      17
    52   1                     1.7      5.0999999999999996      18.699999999999999
    53   2                       0      3.3999999999999999      20.399999999999999
    54   4                     1.7      5.0999999999999996      22.099999999999998
    55   4                       0      3.3999999999999999      23.800000000000001
    56   3                     1.7      5.0999999999999996                    25.5
    57   3                       0      3.3999999999999999      27.199999999999999
    58   3                     1.7      5.0999999999999996      28.899999999999999
    59   1                       0      3.3999999999999999      30.599999999999998
    60   1                     1.7      5.0999999999999996      32.299999999999997
    61   5                       0      3.3999999999999999                      34
    62   1                     1.7      5.0999999999999996      35.700000000000003
    63   2                       0      3.3999999999999999      37.399999999999999
    64   5                     1.7      5.0999999999999996      39.100000000000001
    65   2                       0      3.3999999999999999      40.799999999999997
    66   4                     1.7      5.0999999999999996                    42.5
    67   1                       0      3.3999999999999999      44.199999999999996
    68   4                     1.7      5.0999999999999996      45.899999999999999
    69   5                       0      3.3999999999999999      47.600000000000001
    70   3                     1.7      5.0999999999999996      49.300000000000004
    71   2                       0      3.3999999999999999                      51
    72   3                     1.7      5.0999999999999996      52.700000000000003
    73   1                       0      3.3999999999999999      54.399999999999999
    74   3                     1.7      5.0999999999999996      56.100000000000001
    75   3                       0      3.3999999999999999      57.799999999999997
    76   3                     1.7      5.0999999999999996                    59.5
    77   3                       0      3.3999999999999999      61.199999999999996
    78   1                     1.7      5.0999999999999996      62.899999999999999
    79   3                       0      3.3999999999999999      64.599999999999994
    80   5                     1.7      5.0999999999999996      66.299999999999997
    81   5                       0      6.7999999999999998                       0
    82   5                     1.7                     8.5                     1.7
    83   3                       0      6.7999999999999998      3.3999999999999999
    84   2                     1.7                     8.5      5.0999999999999996
    85   4                       0      6.7999999999999998      6.7999999999999998
    86   4                     1.7                     8.5                     8.5
    87   4                       0      6.7999999999999998      10.199999999999999
    88   5                     1.7                     8.5      11.899999999999999
    89   2                       0      6.7999999999999998                    13.6
    90   1                     1.7                     8.5      15.299999999999999
    91   2                       0      6.7999999999999998                      17
    92   4                     1.7                     8.5      18.699999999999999
    93   1                       0      6.7999999999999998      20.399999999999999
    94   5                     1.7                     8.5      22.099999999999998
    95   1                       0      6.7999999999999998      23.800000000000001
    96   4                     1.7                     8.5                    25.5
    97   1                       0      6.7999999999999998      27.199999999999999
    98   3                     1.7                     8.5      28.899999999999999
    99   3                       0      6.7999999999999998      30.599999999999998
   100   1                     1.7                     8.5      32.299999999999997
   101   4                       0      6.7999999999999998                      34
   102   2                     1.7                     8.5      35.700000000000003
   103   4                       0      6.7999999999999998      37.399999999999999
   104   3                     1.7                     8.5      39.100000000000001
   105   4                       0      6.7999999999999998      40.799999999999997
   106   2                     1.7                     8.5                    42.5
   107   4                       0      6.7999999999999998      44.199999999999996
   108   4                     1.7                     8.5      45.899999999999999
   109   5                       0      6.7999999999999998      47.600000000000001
   110   4                     1.7                     8.5      49.300000000000004
   111   3                       0      6.7999999999999998                      51
   112   3                     1.7                     8.5      52.700000000000003
   113   1                       0      6.7999999999999998      54.399999999999999
   114   1                     1.7                     8.5      56.100000000000001
   115   5                       0      6.7999999999999998      57.799999999999997
   116   5                     1.7                     8.5                    59.5
   117   2                       0      6.7999999999999998      61.199999999999996
   118   5                     1.7                     8.5      62.899999999999999
   119   4                       0      6.7999999999999998      64.599999999999994
   120   4                     1.7                     8.5      66.299999999999997
   121   1                       0      10.199999999999999                       0
   122   2                     1.7      11.899999999999999                     1.7
   123   2                       0      10.199999999999999      3.3999999999999999
   124   3                     1.7      11.899999999999999      5.0999999999999996
   125   1                       0      10.199999999999999      6.7999999999999998
   126   4                     1.7      11.899999999999999                     8.5
   127   2                       0      10.199999999999999      10.199999999999999
   128   3                     1.7      11.899999999999999      11.899999999999999
   129   2                       0      10.199999999999999                    13.6
   130   3                     1.7      11.899999999999999      15.299999999999999
   131   4                       0      10.199999999999999                      17
   132   3                     1.7      11.899999999999999      18.699999999999999
   133   1                       0      10.199999999999999      20.399999999999999
   134   5                     1.7      11.899999999999999      22.099999999999998
   135   2                       0      10.199999999999999      23.800000000000001
   136   4                     1.7      11.899999999999999                    25.5
   137   2                       0      10.199999999999999      27.199999999999999
   138   5                     1.7      11.899999999999999      28.899999999999999
   139   1                       0      10.199999999999999      30.599999999999998
   140   2                     1.7      11.899999999999999      32.299999999999997
   141   4                       0      10.199999999999999                      34
   142   1                     1.7      11.899999999999999      35.700000000000003
   143   3                       0      10.199999999999999      37.399999999999999
   144   5                     1.7      11.899999999999999      39.100000000000001
   145   4                       0      10.199999999999999      40.799999999999997
   146   3                     1.7      11.899999999999999                    42.5
   147   1                       0      10.199999999999999      44.199999999999996
   148   2                     1.7      11.899999999999999      45.899999999999999
   149   1                       0      10.199999999999999      47.600000000000001
   150   3                     1.7      11.899999999999999      49.300000000000004
   151   5                       0      10.199999999999999                      51
   152   3                     1.7      11.899999999999999      52.700000000000003
   153   5                       0      10.199999999999999      54.399999999999999
   154   3                     1.7      11.899999999999999      56.100000000000001
   155   4                       0      10.199999999999999      57.799999999999997
   156   1                     1.7      11.899999999999999                    59.5
   157   5                       0      10.199999999999999      61.199999999999996
   158   1                     1.7      11.899999999999999      62.899999999999999
   159   1                       0      10.199999999999999      64.599999999999994
   160   2                     1.7      11.899999999999999      66.299999999999997
   161   2                       0                    13.6                       0
   162   1                     1.7      15.299999999999999                     1.7
   163   4                       0                    13.6      3.3999999999999999
   164   1                     1.7      15.299999999999999      5.0999999999999996
   165   2                       0                    13.6      6.7999999999999998
   166   4                     1.7      15.299999999999999                     8.5
   167   1                       0                    13.6      10.199999999999999
   168   4                     1.7      15.299999999999999      11.899999999999999
   169   3                       0                    13.6                    13.6
   170   4                     1.7      15.299999999999999      15.299999999999999
   171   5                       0                    13.6                      17
   172   3                     1.7      15.299999999999999      18.699999999999999
   173   3                       0                    13.6      20.399999999999999
   174   3                     1.7      15.299999999999999      22.099999999999998
   175   3                       0                    13.6      23.800000000000001
   176   4                     1.7      15.299999999999999                    25.5
   177   5                       0                    13.6      27.199999999999999
   178   3                     1.7      15.299999999999999      28.899999999999999
   179   3                       0                    13.6      30.599999999999998
   180   3                     1.7      15.299999999999999      32.299999999999997
   181   2                       0                    13.6                      34
   182   4                     1.7      15.299999999999999      35.700000000000003
   183   1                       0                    13.6      37.399999999999999
   184   4                     1.7      15.299999999999999      39.100000000000001
   185   3                       0                    13.6      40.799999999999997
   186   4                     1.7      15.299999999999999                    42.5
   187   1                       0                    13.6      44.199999999999996
   188   3                     1.7      15.299999999999999      45.899999999999999
   189   3                       0                    13.6      47.600000000000001
   190   1                     1.7      15.299999999999999      49.300000000000004
   191   5                       0                    13.6                      51
   192   1                     1.7      15.299999999999999      52.700000000000003
   193   4                       0                    13.6      54.399999999999999
   194   4                     1.7      15.299999999999999      56.100000000000001
   195   1                       0                    13.6      57.799999999999997
   196   1                     1.7      15.299999999999999                    59.5
   197   4                       0                    13.6      61.199999999999996
   198   5                     1.7      15.299999999999999      62.899999999999999
   199   3                       0                    13.6      64.599999999999994
   200   5                     1.7      15.299999999999999      66.299999999999997
   201   1                       0                      17                       0
   202   1                     1.7      18.699999999999999                     1.7
   203   3                       0                      17      3.3999999999999999
   204   5                     1.7      18.699999999999999      5.0999999999999996
   205   3                       0                      17      6.7999999999999998
   206   4                     1.7      18.699999999999999                     8.5
   207   1                       0                      17      10.199999999999999
   208   2                     1.7      18.699999999999999      11.899999999999999
   209   2                       0                      17                    13.6
   210   5                     1.7      18.699999999999999      15.299999999999999
   211   2                       0                      17                      17
   212   1                     1.7      18.699999999999999      18.699999999999999
   213   2                       0                      17      20.399999999999999
   214   3                     1.7      18.699999999999999      22.099999999999998
   215   5                       0                      17      23.800000000000001
   216   4                     1.7      18.699999999999999                    25.5
   217   2                       0                      17      27.199999999999999
   218   4                     1.7      18.699999999999999      28.899999999999999
   219   4                       0                      17      30.599999999999998
   220   4                     1.7      18.699999999999999      32.299999999999997
   221   5                       0                      17                      34
   222   3                     1.7      18.699999999999999      35.700000000000003
   223   3                       0                      17      37.399999999999999
   224   4                     1.7      18.699999999999999      39.100000000000001
   225   2                       0                      17      40.799999999999997
   226   3                     1.7      18.699999999999999                    42.5
   227   4                       0                      17      44.199999999999996
   228   3                     1.7      18.699999999999999      45.899999999999999
   229   3                       0                      17      47.600000000000001
   230   2                     1.7      18.699999999999999      49.300000000000004
   231   3                       0                      17                      51
   232   2                     1.7      18.699999999999999      52.700000000000003
   233   5                       0                      17      54.399999999999999
   234   2                     1.7      18.699999999999999      56.100000000000001
   235   2                       0                      17      57.799999999999997
   236   2                     1.7      18.699999999999999                    59.5
   237   4                       0                      17      61.199999999999996
   238   5                     1.7      18.699999999999999      62.899999999999999
   239   4                       0                      17      64.599999999999994
   240   4                     1.7      18.699999999999999      66.299999999999997
   241   4                       0      20.399999999999999                       0
   242   2                     1.7      22.099999999999998                     1.7
   243   5                       0      20.399999999999999      3.3999999999999999
   244   5                     1.7      22.099999999999998      5.0999999999999996
   245   1                       0      20.399999999999999      6.7999999999999998
   246   1                     1.7      22.099999999999998                     8.5
   247   3                       0      20.399999999999999      10.199999999999999
   248   3                     1.7      22.099999999999998      11.899999999999999
   249   2                       0      20.399999999999999                    13.6
   250   5                     1.7      22.099999999999998      15.299999999999999
   251   5                       0      20.399999999999999                      17
   252   2                     1.7      22.099999999999998      18.699999999999999
   253   1                       0      20.399999999999999      20.399999999999999
   254   3                     1.7      22.099999999999998      22.099999999999998
   255   2                       0      20.399999999999999      23.800000000000001
   256   4                     1.7      22.099999999999998                    25.5
   257   1                       0      20.399999999999999      27.199999999999999
   258   2                     1.7      22.099999999999998      28.899999999999999
   259   5                       0      20.399999999999999      30.599999999999998
   260   4                     1.7      22.099999999999998      32.299999999999997
   261   3                       0      20.399999999999999                      34
   262   5                     1.7      22.099999999999998      35.700000000000003
   263   3                       0      20.399999999999999      37.399999999999999
   264   4                     1.7      22.099999999999998      39.100000000000001
   265   3                       0      20.399999999999999      40.799999999999997
   266   5                     1.7      22.099999999999998                    42.5
   267   1                       0      20.399999999999999      44.199999999999996
   268   5                     1.7      22.099999999999998      45.899999999999999
   269   5                       0      20.399999999999999      47.600000000000001
   270   2                     1.7      22.099999999999998      49.300000000000004
   271   2                       0      20.399999999999999                      51
   272   5                     1.7      22.099999999999998      52.700000000000003
   273   2                       0      20.399999999999999      54.399999999999999
   274   3                     1.7      22.099999999999998      56.100000000000001
   275   5                       0      20.399999999999999      57.799999999999997
   276   2                     1.7      22.099999999999998                    59.5
   277   2                       0      20.399999999999999      61.199999999999996
   278   1                     1.7      22.099999999999998      62.899999999999999
   279   4                       0      20.399999999999999      64.599999999999994
   280   4                     1.7      22.099999999999998      66.299999999999997
   281   4                       0      23.800000000000001                       0
   282   2                     1.7                    25.5                     1.7
   283   4                       0      23.800000000000001      3.3999999999999999
   284   5                     1.7                    25.5      5.0999999999999996
   285   2                       0      23.800000000000001      6.7999999999999998
   286   5                     1.7                    25.5                     8.5
   287   4                       0      23.800000000000001      10.199999999999999
   288   1                     1.7                    25.5      11.899999999999999
   289   1                       0      23.800000000000001                    13.6
   290   1                     1.7                    25.5      15.299999999999999
   291   1                       0      23.800000000000001                      17
   292   3                     1.7                    25.5      18.699999999999999
   293   3                       0      23.800000000000001      20.399999999999999
   294   4                     1.7                    25.5      22.099999999999998
   295   3                       0      23.800000000000001      23.800000000000001
   296   1                     1.7                    25.5                    25.5
   297   5                       0      23.800000000000001      27.199999999999999
   298   5                     1.7                    25.5      28.899999999999999
   299   1                       0      23.800000000000001      30.599999999999998
   300   1                     1.7                    25.5      32.299999999999997
   301   1                       0      23.800000000000001                      34
   302   5                     1.7                    25.5      35.700000000000003
   303   3                       0      23.800000000000001      37.399999999999999
   304   4                     1.7                    25.5      39.100000000000001
   305   2                       0      23.800000000000001      40.799999999999997
   306   5                     1.7                    25.5                    42.5
   307   4                       0      23.800000000000001      44.199999999999996
   308   4                     1.7                    25.5      45.899999999999999
   309   4                       0      23.800000000000001      47.600000000000001
   310   4                     1.7                    25.5      49.300000000000004
   311   4                       0      23.800000000000001                      51
   312   4                     1.7                    25.5      52.700000000000003
   313   1                       0      23.800000000000001      54.399999999999999
   314   4                     1.7                    25.5      56.100000000000001
   315   3                       0      23.800000000000001      57.799999999999997
   316   3                     1.7                    25.5                    59.5
   317   3                       0      23.800000000000001      61.199999999999996
   318   2                     1.7                    25.5      62.899999999999999
   319   5                       0      23.800000000000001      64.599999999999994
   320   1                     1.7                    25.5      66.299999999999997
   321   4                       0      27.199999999999999                       0
   322   1                     1.7      28.899999999999999                     1.7
   323   5                       0      27.199999999999999      3.3999999999999999
   324   5                     1.7      28.899999999999999      5.0999999999999996
   325   1                       0      27.199999999999999      6.7999999999999998
   326   1                     1.7      28.899999999999999                     8.5
   327   4                       0      27.199999999999999      10.199999999999999
   328   2                     1.7      28.899999999999999      11.899999999999999
   329   5                       0      27.199999999999999                    13.6
   330   1                     1.7      28.899999999999999      15.299999999999999
   331   5                       0      27.199999999999999                      17
   332   1                     1.7      28.899999999999999      18.699999999999999
   333   3                       0      27.199999999999999      20.399999999999999
   334   5                     1.7      28.899999999999999      22.099999999999998
   335   4                       0      27.199999999999999      23.800000000000001
   336   2                     1.7      28.899999999999999                    25.5
   337   3                       0      27.199999999999999      27.199999999999999
   338   4                     1.7      28.899999999999999      28.899999999999999
   339   2                       0      27.199999999999999      30.599999999999998
   340   4                     1.7      28.899999999999999      32.299999999999997
   341   1                       0      27.199999999999999                      34
   342   4                     1.7      28.899999999999999      35.700000000000003
   343   3                       0      27.199999999999999      37.399999999999999
   344   4                     1.7      28.899999999999999      39.100000000000001
   345   3                       0      27.199999999999999      40.799999999999997
   346   4                     1.7      28.899999999999999                    42.5
   347   5                       0      27.199999999999999      44.199999999999996
   348   1                     1.7      28.899999999999999      45.899999999999999
   349   5                       0      27.199999999999999      47.600000000000001
   350   3                     1.7      28.899999999999999      49.300000000000004
   351   1                       0      27.199999999999999                      51
   352   2                     1.7      28.899999999999999      52.700000000000003
   353   2                       0      27.199999999999999      54.399999999999999
   354   3                     1.7      28.899999999999999      56.100000000000001
   355   5                       0      27.199999999999999      57.799999999999997
   356   1                     1.7      28.899999999999999                    59.5
   357   4                       0      27.199999999999999      61.199999999999996
   358   3                     1.7      28.899999999999999      62.899999999999999
   359   4                       0      27.199999999999999      64.599999999999994