(written by ASE)

16000 atoms
5 atom types

0.0      68.400000000000006  xlo xhi
0.0      68.400000000000006  ylo yhi
0.0      68.400000000000006  zlo zhi

Atoms # atomic

     1   5                       0                       0                       0
     2   5                    1.71                    1.71                    1.71
     3   4                       0                       0      3.4199999999999999
     4   5                    1.71                    1.71      5.1299999999999999
     5   4                       0                       0      6.8399999999999999
     6   4                    1.71                    1.71      8.5500000000000007
     7   5                       0                       0                   10.26
     8   1                    1.71                    1.71      11.969999999999999
     9   3                       0                       0                   13.68
    10   1                    1.71                    1.71      15.390000000000001
    11   1                       0                       0      17.100000000000001
    12   1                    1.71                    1.71      18.810000000000002
    13   2                       0                       0                   20.52
    14   5                    1.71                    1.71                   22.23
    15   5                       0                       0      23.939999999999998
    16   4                    1.71                    1.71      25.649999999999999
    17   4                       0                       0      27.359999999999999
    18   1                    1.71                    1.71                   29.07
    19   1                       0                       0      30.780000000000001
    20   5                    1.71                    1.71      32.490000000000002
    21   1                       0                       0      34.200000000000003
    22   4                    1.71                    1.71      35.910000000000004
    23   1                       0                       0      37.619999999999997
    24   1                    1.71                    1.71      39.329999999999998
    25   5                       0                       0      41.039999999999999
    26   3                    1.71                    1.71                   42.75
    27   5                       0                       0      44.460000000000001
    28   2                    1.71                    1.71      46.170000000000002
    29   5                       0                       0      47.879999999999995
    30   1                    1.71                    1.71      49.589999999999996
    31   3                       0                       0      51.299999999999997
    32   2                    1.71                    1.71      53.009999999999998
    33   3                       0                       0      54.719999999999999
    34   5                    1.71                    1.71                   56.43
    35   2                       0                       0      58.140000000000001
    36   3                    1.71                    1.71      59.850000000000001
    37   1                       0                       0      61.560000000000002
    38   5                    1.71                    1.71      63.270000000000003
    39   3                       0                       0      64.980000000000004
    40   1                    1.71                    1.71      66.689999999999998
    41   2                       0      3.4199999999999999                       0
    42   2                    1.71      5.1299999999999999                    1.71
    43   3                       0      3.4199999999999999      3.4199999999999999
    44   1                    1.71      5.1299999999999999      5.1299999999999999
    45   3                       0      3.4199999999999999      6.8399999999999999
    46   5                    1.71      5.1299999999999999      8.5500000000000007
    47   1                       0      3.4199999999999999                   10.26
    48   3                    1.71      5.1299999999999999      11.969999999999999
    49   3                       0      3.4199999999999999                   13.68
    50   1                    1.71      5.1299999999999999      15.390000000000001
    51   2                       0      3.4199999999999999      17.100000000000001
    52   3                    1.71      5.1299999999999999      18.810000000000002
    53   3                       0      3.4199999999999999                   20.52
    54   2                    1.71      5.1299999999999999                   22.23
    55   5                       0      3.4199999999999999      23.939999999999998
    56   4                    1.71      5.1299999999999999      25.649999999999999
    57   5                       0      3.4199999999999999      27.359999999999999
    58   4                    1.71      5.1299999999999999                   29.07
    59   5                       0      3.4199999999999999      30.780000000000001
    60   3                    1.71      5.1299999999999999      32.490000000000002
    61   4                       0      3.4199999999999999      34.200000000000003
    62   5                    1.71      5.1299999999999999      35.910000000000004
    63   4                       0      3.4199999999999999      37.619999999999997
    64   1                    1.71      5.1299999999999999      39.329999999999998
    65   1                       0      3.4199999999999999      41.039999999999999
    66   1                    1.71      5.1299999999999999                   42.75
    67   3                       0      3.4199999999999999      44.460000000000001
    68   5                    1.71      5.1299999999999999      46.170000000000002
    69   4                       0      3.4199999999999999      47.879999999999995
    70   2                    1.71      5.1299999999999999      49.589999999999996
    71   5                       0      3.4199999999999999      51.299999999999997
    72   1                    1.71      5.1299999999999999      53.009999999999998
    73   1                       0      3.4199999999999999      54.719999999999999
    74   4                    1.71      5.1299999999999999                   56.43
    75   3                       0      3.4199999999999999      58.140000000000001
    76   4                    1.71      5.1299999999999999      59.850000000000001
    77   2                       0      3.4199999999999999      61.560000000000002
    78   1                    1.71      5.1299999999999999      63.270000000000003
    79   3                       0      3.4199999999999999      64.980000000000004
    80   4                    1.71      5.1299999999999999      66.689999999999998
    81   3                       0      6.8399999999999999                       0
    82   5                    1.71      8.5500000000000007                    1.71
    83   3                       0      6.8399999999999999      3.4199999999999999
    84   5                    1.71      8.5500000000000007      5.1299999999999999
    85   3                       0      6.8399999999999999      6.8399999999999999
    86   4                    1.71      8.5500000000000007      8.5500000000000007
    87   5                       0      6.8399999999999999                   10.26
    88   2                    1.71      8.5500000000000007      11.969999999999999
    89   2                       0      6.8399999999999999                   13.68
    90   3                    1.71      8.5500000000000007      15.390000000000001
    91   2                       0      6.8399999999999999      17.100000000000001
    92   5                    1.71      8.5500000000000007      18.810000000000002
    93   3                       0      6.8399999999999999                   20.52
    94   1                    1.71      8.5500000000000007                   22.23
    95   5                       0      6.8399999999999999      23.939999999999998
    96   1                    1.71      8.5500000000000007      25.649999999999999
    97   4                       0      6.8399999999999999      27.359999999999999
    98   3                    1.71      8.5500000000000007                   29.07
    99   2                       0      6.8399999999999999      30.780000000000001
   100   4                    1.71      8.5500000000000007      32.490000000000002
   101   1                       0      6.8399999999999999      34.200000000000003
   102   3                    1.71      8.5500000000000007      35.910000000000004
   103   2                       0      6.8399999999999999      37.619999999999997
   104   2                    1.71      8.5500000000000007      39.329999999999998
   105   5                       0      6.8399999999999999      41.039999999999999
   106   4                    1.71      8.5500000000000007                   42.75
   107   3                       0      6.8399999999999999      44.460000000000001
   108   3                    1.71      8.5500000000000007      46.170000000000002
   109   5                       0      6.8399999999999999      47.879999999999995
   110   4                    1.71      8.5500000000000007      49.589999999999996
   111   2                       0      6.8399999999999999      51.299999999999997
   112   2                    1.71      8.5500000000000007      53.009999999999998
   113   2                       0      6.8399999999999999      54.719999999999999
   114   4                    1.71      8.5500000000000007                   56.43
   115   5                       0      6.8399999999999999      58.140000000000001
   116   5                    1.71      8.5500000000000007      59.850000000000001
   117   1                       0      6.8399999999999999      61.560000000000002
   118   2                    1.71      8.5500000000000007      63.270000000000003
   119   1                       0      6.8399999999999999      64.980000000000004
   120   5                    1.71      8.5500000000000007      66.689999999999998
   121   3                       0                   10.26                       0
   122   4                    1.71      11.969999999999999                    1.71
   123   3                       0                   10.26      3.4199999999999999
   124   2                    1.71      11.969999999999999      5.1299999999999999
   125   1                       0                   10.26      6.8399999999999999
   126   2                    1.71      11.969999999999999      8.5500000000000007
   127   2                       0                   10.26                   10.26
   128   2                    1.71      11.969999999999999      11.969999999999999
   129   4                       0                   10.26                   13.68
   130   5                    1.71      11.969999999999999      15.390000000000001
   131   4                       0                   10.26      17.100000000000001
   132   4                    1.71      11.969999999999999      18.810000000000002
   133   1                       0                   10.26                   20.52
   134   1                    1.71      11.969999999999999                   22.23
   135   4                       0                   10.26      23.939999999999998
   136   1                    1.71      11.969999999999999      25.649999999999999
   137   2                       0                   10.26      27.359999999999999
   138   1                    1.71      11.969999999999999                   29.07
   139   3                       0                   10.26      30.780000000000001
   140   3                    1.71      11.969999999999999      32.490000000000002
   141   2                       0                   10.26      34.200000000000003
   142   3                    1.71      11.969999999999999      35.910000000000004
   143   1                       0                   10.26      37.619999999999997
   144   4                    1.71      11.969999999999999      39.329999999999998
   145   2                       0                   10.26      41.039999999999999
   146   4                    1.71      11.969999999999999                   42.75
   147   5                       0                   10.26      44.460000000000001
   148   4                    1.71      11.969999999999999      46.170000000000002
   149   3                       0                   10.26      47.879999999999995
   150   3                    1.71      11.969999999999999      49.589999999999996
   151   5                       0                   10.26      51.299999999999997
   152   4                    1.71      11.969999999999999      53.009999999999998
   153   1                       0                   10.26      54.719999999999999
   154   5                    1.71      11.969999999999999                   56.43
   155   1                       0                   10.26      58.140000000000001
   156   5                    1.71      11.969999999999999      59.850000000000001
   157   3                       0                   10.26      61.560000000000002
   158   5                    1.71      11.969999999999999      63.270000000000003
   159   4                       0                   10.26      64.980000000000004
   160   1                    1.71      11.969999999999999      66.689999999999998
   161   2                       0                   13.68                       0
   162   5                    1.71      15.390000000000001                    1.71
   163   3                       0                   13.68      3.4199999999999999
   164   3                    1.71      15.390000000000001      5.1299999999999999
   165   4                       0                   13.68      6.8399999999999999
   166   2                    1.71      15.390000000000001      8.5500000000000007
   167   5                       0                   13.68                   10.26
   168   5                    1.71      15.390000000000001      11.969999999999999
   169   5                       0                   13.68                   13.68
   170   1                    1.71      15.390000000000001      15.390000000000001
   171   4                       0                   13.68      17.100000000000001
   172   5                    1.71      15.390000000000001      18.810000000000002
   173   2                       0                   13.68                   20.52
   174   3                    1.71      15.390000000000001                   22.23
   175   1                       0                   13.68      23.939999999999998
   176   5                    1.71      15.390000000000001      25.649999999999999
   177   4                       0                   13.68      27.359999999999999
   178   1                    1.71      15.390000000000001                   29.07
   179   5                       0                   13.68      30.780000000000001
   180   2                    1.71      15.390000000000001      32.490000000000002
   181   5                       0                   13.68      34.200000000000003
   182   4                    1.71      15.390000000000001      35.910000000000004
   183   4                       0                   13.68      37.619999999999997
   184   2                    1.71      15.390000000000001      39.329999999999998
   185   3                       0                   13.68      41.039999999999999
   186   2                    1.71      15.390000000000001                   42.75
   187   5                       0                   13.68      44.460000000000001
   188   4                    1.71      15.390000000000001      46.170000000000002
   189   4                       0                   13.68      47.879999999999995
   190   4                    1.71      15.390000000000001      49.589999999999996
   191   2                       0                   13.68      51.299999999999997
   192   2                    1.71      15.390000000000001      53.009999999999998
   193   3                       0                   13.68      54.719999999999999
   194   2                    1.71      15.390000000000001                   56.43
   195   2                       0                   13.68      58.140000000000001
   196   1                    1.71      15.390000000000001      59.850000000000001
   197   4                       0                   13.68      61.560000000000002
   198   2                    1.71      15.390000000000001      63.270000000000003
   199   1                       0                   13.68      64.980000000000004
   200   3                    1.71      15.390000000000001      66.689999999999998
   201   4                       0      17.100000000000001                       0
   202   5                    1.71      18.810000000000002                    1.71
   203   1                       0      17.100000000000001      3.4199999999999999
   204   2                    1.71      18.810000000000002      5.1299999999999999
   205   1                       0      17.100000000000001      6.8399999999999999
   206   1                    1.71      18.810000000000002      8.5500000000000007
   207   3                       0      17.100000000000001                   10.26
   208   2                    1.71      18.810000000000002      11.969999999999999
   209   1                       0      17.100000000000001                   13.68
   210   3                    1.71      18.810000000000002      15.390000000000001
   211   2                       0      17.100000000000001      17.100000000000001
   212   2                    1.71      18.810000000000002      18.810000000000002
   213   4                       0      17.100000000000001                   20.52
   214   4                    1.71      18.810000000000002                   22.23
   215   5                       0      17.100000000000001      23.939999999999998
   216   1                    1.71      18.810000000000002      25.649999999999999
   217   3                       0      17.100000000000001      27.359999999999999
   218   1                    1.71      18.810000000000002                   29.07
   219   5                       0      17.100000000000001      30.780000000000001
   220   2                    1.71      18.810000000000002      32.490000000000002
   221   4                       0      17.100000000000001      34.200000000000003
   222   4                    1.71      18.810000000000002      35.910000000000004
   223   2                       0      17.100000000000001      37.619999999999997
   224   1                    1.71      18.810000000000002      39.329999999999998
   225   5                       0      17.100000000000001      41.039999999999999
   226   2                    1.71      18.810000000000002                   42.75
   227   3                       0      17.100000000000001      44.460000000000001
   228   3                    1.71      18.810000000000002      46.170000000000002
   229   1                       0      17.100000000000001      47.879999999999995
   230   4                    1.71      18.810000000000002      49.589999999999996
   231   3                       0      17.100000000000001      51.299999999999997
   232   4                    1.71      18.810000000000002      53.009999999999998
   233   1                       0      17.100000000000001      54.719999999999999
   234   4                    1.71      18.810000000000002                   56.43
   235   3                       0      17.100000000000001      58.140000000000001
   236   1                    1.71      18.810000000000002      59.850000000000001
   237   3                       0      17.100000000000001      61.560000000000002
   238   1                    1.71      18.810000000000002      63.270000000000003
   239   4                       0      17.100000000000001      64.980000000000004
   240   4                    1.71      18.810000000000002      66.689999999999998
   241   1                       0                   20.52                       0
   242   4                    1.71                   22.23                    1.71
   243   4                       0                   20.52      3.4199999999999999
   244   3                    1.71                   22.23      5.1299999999999999
   245   5                       0                   20.52      6.8399999999999999
   246   2                    1.71                   22.23      8.5500000000000007
   247   5                       0                   20.52                   10.26
   248   2                    1.71                   22.23      11.969999999999999
   249   3                       0                   20.52                   13.68
   250   4                    1.71                   22.23      15.390000000000001
   251   1                       0                   20.52      17.100000000000001
   252   1                    1.71                   22.23      18.810000000000002
   253   2                       0                   20.52                   20.52
   254   4                    1.71                   22.23                   22.23
   255   1                       0                   20.52      23.939999999999998
   256   2                    1.71                   22.23      25.649999999999999
   257   3                       0                   20.52      27.359999999999999
   258   3                    1.71                   22.23                   29.07
   259   2                       0                   20.52      30.780000000000001
   260   5                    1.71                   22.23      32.490000000000002
   261   3                       0                   20.52      34.200000000000003
   262   3                    1.71                   22.23      35.910000000000004
   263   4                       0                   20.52      37.619999999999997
   264   1                    1.71                   22.23      39.329999999999998
   265   5                       0                   20.52      41.039999999999999
   266   3                    1.71                   22.23                   42.75
   267   2                       0                   20.52      44.460000000000001
   268   5                    1.71                   22.23      46.170000000000002
   269   4                       0                   20.52      47.879999999999995
   270   5                    1.71                   22.23      49.589999999999996
   271   5                       0                   20.52      51.299999999999997
   272   5                    1.71                   22.23      53.009999999999998
   273   5                       0                   20.52      54.719999999999999
   274   5                    1.71                   22.23                   56.43
   275   1                       0                   20.52      58.140000000000001
   276   5                    1.71                   22.23      59.850000000000001
   277   5                       0                   20.52      61.560000000000002
   278   1                    1.71                   22.23      63.270000000000003
   279   1                       0                   20.52      64.980000000000004
   280   2                    1.71                   22.23      66.689999999999998
   281   3                       0      23.939999999999998                       0
   282   2                    1.71      25.649999999999999                    1.71
   283   5                       0      23.939999999999998      3.4199999999999999
   284   2                    1.71      25.649999999999999      5.1299999999999999
   285   5                       0      23.939999999999998      6.8399999999999999
   286   3                    1.71      25.649999999999999      8.5500000000000007
   287   2                       0      23.939999999999998                   10.26
   288   4                    1.71      25.649999999999999      11.969999999999999
   289   4                       0      23.939999999999998                   13.68
   290   2                    1.71      25.649999999999999      15.390000000000001
   291   5                       0      23.939999999999998      17.100000000000001
   292   2                    1.71      25.649999999999999      18.810000000000002
   293   1                       0      23.939999999999998                   20.52
   294   5                    1.71      25.649999999999999                   22.23
   295   1                       0      23.939999999999998      23.939999999999998
   296   1                    1.71      25.649999999999999      25.649999999999999
   297   5                       0      23.939999999999998      27.359999999999999
   298   3                    1.71      25.649999999999999                   29.07
   299   1                       0      23.939999999999998      30.780000000000001
   300   2                    1.71      25.649999999999999      32.490000000000002
   301   3                       0      23.939999999999998      34.200000000000003
   302   4                    1.71      25.649999999999999      35.910000000000004
   303   4                       0      23.939999999999998      37.619999999999997
   304   2                    1.71      25.649999999999999      39.329999999999998
   305   5                       0      23.939999999999998      41.039999999999999
   306   2                    1.71      25.649999999999999                   42.75
   307   1                       0      23.939999999999998      44.460000000000001
   308   3                    1.71      25.649999999999999      46.170000000000002
   309   4                       0      23.939999999999998      47.879999999999995
   310   1                    1.71      25.649999999999999      49.589999999999996
   311   2                       0      23.939999999999998      51.299999999999997
   312   2                    1.71      25.649999999999999      53.009999999999998
   313   5                       0      23.939999999999998      54.719999999999999
   314   4                    1.71      25.649999999999999                   56.43
   315   3                       0      23.939999999999998      58.140000000000001
   316   2                    1.71      25.649999999999999      59.850000000000001
   317   5                       0      23.939999999999998      61.560000000000002
   318   3                    1.71      25.649999999999999      63.270000000000003
   319   3                       0      23.939999999999998      64.980000000000004
   320   2                    1.71      25.649999999999999      66.689999999999998
   321   4                       0      27.359999999999999                       0
   322   3                    1.71                   29.07                    1.71
   323   3                       0      27.359999999999999      3.4199999999999999
   324   2                    1.71                   29.07      5.1299999999999999
   325   5                       0      27.359999999999999      6.8399999999999999
   326   5                    1.71                   29.07      8.5500000000000007
   327   1                       0      27.359999999999999                   10.26
   328   5                    1.71                   29.07      11.969999999999999
   329   4                       0      27.359999999999999                   13.68
   330   4                    1.71                   29.07      15.390000000000001
   331   2                       0      27.359999999999999      17.100000000000001
   332   3                    1.71                   29.07      18.810000000000002
   333   1                       0      27.359999999999999                   20.52
   334   3                    1.71                   29.07                   22.23
   335   3                       0      27.359999999999999      23.939999999999998
   336   4                    1.71                   29.07      25.649999999999999
   337   2                       0      27.359999999999999      27.359999999999999
   338   2                    1.71                   29.07                   29.07
   339   1                       0      27.359999999999999      30.780000000000001
   340   1                    1.71                   29.07      32.490000000000002
   341   3                       0      27.359999999999999      34.200000000000003
   342   1                    1.71                   29.07      35.910000000000004
   343   2                       0      27.359999999999999      37.619999999999997
   344   4                    1.71                   29.07      39.329999999999998
   345   2                       0      27.359999999999999      41.039999999999999
   346   1                    1.71                   29.07                   42.75
   347   3                       0      27.359999999999999      44.460000000000001
   348   4                    1.71                   29.07      46.170000000000002
   349   4                       0      27.359999999999999      47.879999999999995
   350   5                    1.71                   29.07      49.589999999999996
   351   5                       0      27.359999999999999      51.299999999999997
   352   4                    1.71                   29.07      53.009999999999998
   353   3                       0      27.359999999999999      54.719999999999999
   354   4                    1.71                   29.07                   56.43
   355   3                       0      27.359999999999999      58.140000000000001
   356   2                    1.71                   29.07      59.850000000000001
   357   2                       0      27.359999999999999      61.560000000000002
   358   5                    1.71                   29.07      63.270000000000003
   359   1                       0      27.359999999999999      64.980000000000004