ITEM: TIMESTEP
0
ITEM: NUMBER OF ATOMS
16000
ITEM: BOX BOUNDS pp pp pp
0.0000000000000000e+00 6.7400000000000006e+01
0.0000000000000000e+00 6.7400000000000006e+01
0.0000000000000000e+00 6.7400000000000006e+01
ITEM: ATOMS id x y z
1 0.00735985 67.3141 0.070008
2 1.68587 1.63284 1.60777
3 0.0188551 67.2896 3.34894
4 1.59933 1.61544 5.02885
5 0.0399472 67.3642 6.71708
6 1.68995 1.65127 8.49345
7 0.0155448 0.0244946 10.1262
8 1.68374 1.65424 11.7955
9 0.0398868 67.3992 13.4993
10 1.68471 1.65948 15.0981
11 0.0573765 0.0182694 16.8284
12 1.64442 1.64935 18.5945
13 0.0052445 0.000943371 20.2767
14 1.70012 1.56366 21.9982
15 0.024614 0.00717791 23.6159
16 1.69194 1.57745 25.2517
17 0.0181498 67.3925 26.8802
18 1.66319 1.66813 28.5192
19 67.3501 67.3664 30.2893
20 1.68012 1.63856 31.9793
21 0.0536548 67.2949 33.6861
22 1.65956 1.70844 35.4041
23 0.0300131 67.3143 37.0977
24 1.68213 1.68815 38.75
25 67.3607 0.0632 40.4418
26 1.67211 1.78528 42.1373
27 67.3981 0.0129269 43.7521
28 1.66738 1.71131 45.5282
29 67.3859 0.0400927 47.256
30 1.61245 1.70569 48.853
31 67.3885 67.3771 50.5532
32 1.69885 1.71996 52.2696
33 67.3977 67.3765 53.8492
34 1.66004 1.63874 55.6025
35 67.3857 0.0278281 57.3757
36 1.67762 1.65375 58.9879
37 67.361 0.0286099 60.6396
38 1.70146 1.61792 62.3915
39 67.3671 67.3863 63.9856
40 1.68358 1.65077 65.7292
41 0.00687885 3.36985 67.3582
42 1.69989 5.05301 1.54934
43 0.0311634 3.39696 3.32248
44 1.69972 5.04572 5.08798
45 0.0604981 3.41103 6.79932
46 1.72497 5.06032 8.44406
47 0.0328974 3.39483 10.1298
48 1.70692 5.02615 11.8841
49 0.0952419 3.36071 13.4975
50 1.68824 5.01956 15.126
51 0.0790912 3.35861 16.8035
52 1.72653 4.97499 18.5359
53 0.00805815 3.33381 20.326
54 1.78896 5.04132 22.0092
55 0.0637601 3.33381 23.6402
56 1.68083 5.03093 25.3252
57 0.0217117 3.27121 26.8404
58 1.62373 5.00456 28.4286
59 0.0173262 3.39088 30.233
60 1.64052 5.09137 32.0483
61 67.3995 3.3474 33.687
62 1.62398 5.13126 35.3943
63 67.3443 3.44796 37.1798
64 1.64962 5.10786 38.8003
65 67.3591 3.4067 40.4482
66 1.67754 5.11035 42.1308
67 67.3743 3.41457 43.7747
68 1.69595 5.06326 45.4888
69 67.3804 3.36881 47.2282
70 1.68396 5.06776 48.8791
71 67.3728 3.35905 50.5493
72 1.66903 5.08344 52.2726
73 67.331 3.38526 53.8694
74 1.71868 5.00731 55.4843
75 0.0424089 3.32913 57.3068
76 1.71329 4.97277 59.0027
77 0.0262778 3.34405 60.6791
78 1.71061 5.04408 62.4019
79 0.000139525 3.41832 64.0358
80 1.65885 5.07488 65.691
81 0.0463988 6.80205 0.0268853
82 1.74943 8.44143 1.62754
83 0.0724514 6.75287 3.32527
84 1.7492 8.47063 5.07555
85 67.3626 6.7605 6.79277
86 1.77986 8.44135 8.41869
87 67.3916 6.7514 10.1515
88 1.72466 8.28803 11.8411
89 0.0178629 6.65305 13.4404
90 1.64714 8.31193 15.1828
91 0.0155396 6.5064 16.8415
92 1.64913 8.27101 18.4375
93 0.00203168 6.6146 20.2886
94 1.67843 8.32332 21.9792
95 0.0921177 6.67367 23.6104
96 1.67999 8.46452 25.2907
97 67.3766 6.78125 26.9095
98 1.63453 8.39876 28.5861
99 67.3786 6.70844 30.2887
100 1.62881 8.44971 32.0337
101 67.3363 6.8296 33.7237
102 1.62871 8.39815 35.3454
103 67.377 6.81434 37.1403
104 1.61699 8.42657 38.8326
105 67.3945 6.75132 40.4276
106 1.61563 8.40844 42.1459
107 0.0153462 6.8056 43.8952
108 1.65798 8.49868 45.5094
109 0.0142327 6.78037 47.1416
110 1.66972 8.45311 48.8422
111 67.3675 6.73974 50.5686
112 1.67142 8.41292 52.2797
113 67.2767 6.66139 53.8479
114 1.63643 8.35825 55.4987
115 0.0275726 6.68446 57.27
116 1.73095 8.47622 58.9301
117 0.0480696 6.70275 60.6497
118 1.678 8.34233 62.5246
119 0.0207229 6.67485 64.024
120 1.70755 8.38924 65.7028
121 0.0643531 10.1173 0.0356004
122 1.72086 11.8311 1.66214
123 0.0638428 10.0643 3.24297
124 1.66796 11.7613 4.91422
125 67.3508 10.0945 6.70356
126 1.67134 11.6934 8.40745
127 67.3806 9.97534 10.25
128 1.59917 11.8225 11.7546
129 0.0538551 10.0712 13.4364
130 1.65668 11.853 15.2347
131 67.3592 10.2309 16.84
132 1.73635 11.8882 18.6267
133 0.0347537 10.0726 20.2264
134 1.65814 11.9072 21.9025
135 67.3936 10.1284 23.6139
136 1.66822 11.851 25.1903
137 67.3382 10.1935 26.938
138 1.57513 11.8554 28.6816
139 67.2689 10.1976 30.348
140 1.60976 11.8004 32.0441
141 67.2713 10.1175 33.6641
142 1.62845 11.8009 35.4368
143 67.3532 10.0414 37.133
144 1.65936 11.8266 38.7748
145 67.289 10.116 40.4779
146 1.66679 11.8428 42.1291
147 67.3359 10.1403 43.8272
148 1.70024 11.869 45.4792
149 0.0355364 10.1718 47.1616
150 1.62716 11.7832 48.8237
151 0.110084 10.0581 50.5169
152 1.65708 11.798 52.1731
153 67.3814 10.1722 53.9082
154 1.66186 11.87 55.5889
155 67.3786 10.107 57.2492
156 1.74038 11.8446 58.8816
157 0.0831242 10.149 60.6596
158 1.66839 11.8561 62.4802
159 0.0854216 10.093 64.0736
160 1.75043 11.814 65.756
161 0.00944162 13.4509 0.0504121
162 1.63915 15.1634 1.68723
163 67.3987 13.4579 3.33262
164 1.58113 15.1862 4.9218
165 67.3502 13.443 6.65847
166 1.65964 15.1602 8.34339
167 67.397 13.4741 10.0722
168 1.71744 15.221 11.7947
169 0.0444113 13.4424 13.5219
170 1.70904 15.2181 15.2588
171 67.3931 13.531 16.894
172 1.67199 15.2167 18.6064
173 67.3258 13.5545 20.2324
174 1.69571 15.2168 21.9504
175 67.2699 13.5041 23.5588
176 1.67885 15.1609 25.2455
177 67.3684 13.4624 26.9783
178 1.59325 15.2067 28.6633
179 67.3602 13.459 30.3399
180 1.5565 15.2566 31.9939
181 0.0168612 13.5255 33.6708
182 1.62944 15.2319 35.3765
183 67.3798 13.5265 37.0632
184 1.65849 15.1628 38.8349
185 67.381 13.4763 40.5246
186 1.68534 15.1849 42.2307
187 67.2746 13.4974 43.8361
188 1.68084 15.1503 45.4691
189 67.3217 13.4838 47.115
190 1.63208 15.2502 48.7384
191 0.0253446 13.5335 50.4985
192 1.68231 15.1314 52.2305
193 0.00478193 13.5307 53.9458
194 1.69586 15.1735 55.6536
195 67.3872 13.6151 57.3072
196 1.64111 15.2296 58.9522
197 0.0531058 13.5159 60.6205
198 1.70693 15.2041 62.3632
199 0.053775 13.5435 64.0413
200 1.70841 15.1391 65.7545
201 0.0637472 16.8577 67.3765
202 1.6833 18.5174 1.6448
203 0.0136244 16.8985 3.35618
204 1.71126 18.5273 5.03093
205 67.384 16.8098 6.5964
206 1.69054 18.5104 8.30348
207 67.3814 16.8604 10.0903
208 1.68255 18.5535 11.8344
209 67.3875 16.8764 13.5288
210 1.6924 18.563 15.2116
211 0.0194345 16.8512 16.9423
212 1.71091 18.5495 18.5536
213 67.3958 16.8134 20.214
214 1.69905 18.5155 21.9565
215 67.347 16.8462 23.6659
216 1.73482 18.5355 25.2481
217 67.398 16.9262 26.9608
218 1.68987 18.5631 28.6641
219 0.00562241 16.9093 30.3275
220 1.67751 18.5871 31.9872
221 67.3891 16.8956 33.6871
222 1.66425 18.5294 35.3084
223 67.3709 16.9288 37.0073
224 1.61768 18.4917 38.8355
225 67.3721 16.8547 40.5464
226 1.65008 18.5147 42.2004
227 67.3093 16.8205 43.8195
228 1.66154 18.4732 45.4328
229 67.3191 16.8282 47.0864
230 1.67677 18.4476 48.785
231 67.3661 16.8894 50.528
232 1.69625 18.5421 52.2582
233 0.000695695 16.8501 53.9599
234 1.69704 18.5507 55.628
235 67.3799 16.8699 57.3056
236 1.65016 18.5098 58.9481
237 0.0208405 16.8825 60.5928
238 1.70131 18.5496 62.343
239 0.141066 16.8725 64.0431
240 1.69626 18.5576 65.7486
241 0.0904585 20.1643 67.3849
242 1.76074 21.8821 1.64202
243 0.0329273 20.2065 3.36003
244 1.72989 21.9142 4.97587
245 0.012065 20.2235 6.66161
246 1.63905 21.9462 8.42529
247 67.3785 20.2364 10.0429
248 1.64574 21.9381 11.8341
249 67.389 20.2652 13.5509
250 1.70319 21.9366 15.2195
251 67.3846 20.2572 16.8465
252 1.68467 21.9195 18.5151
253 0.0198084 20.2246 20.2482
254 1.69262 21.9008 21.9141
255 67.3755 20.2159 23.6228
256 1.74291 21.9166 25.2411
257 0.0303522 20.2881 26.958
258 1.811 21.9548 28.6964
259 0.0366399 20.2566 30.259
260 1.68362 21.8814 31.9645
261 0.0188254 20.1509 33.6539
262 1.62934 21.878 35.3484
263 67.3593 20.1557 37.0784
264 1.67661 21.883 38.8679
265 67.3088 20.1036 40.5405
266 1.71757 21.8282 42.1573
267 67.3906 20.1452 43.8262
268 1.60667 21.7965 45.479
269 67.3504 20.1244 47.0801
270 1.55374 21.8239 48.7243
271 0.0134977 20.2087 50.58
272 1.6746 21.9397 52.3337
273 67.3492 20.2115 53.9695
274 1.69858 21.927 55.6339
275 67.351 20.1761 57.2713
276 1.66873 21.8912 58.9519
277 0.0253519 20.1676 60.6498
278 1.69359 21.8456 62.3572
279 0.0630727 20.1646 64.0091
280 1.77963 21.8073 65.732
281 0.0813969 23.5793 67.335
282 1.72464 25.1859 1.67099
283 0.080576 23.5755 3.35168
284 1.78479 25.295 5.0347
285 67.3845 23.5939 6.72297
286 1.82186 25.3724 8.44849
287 67.3145 23.6185 10.1517
288 1.67745 25.2874 11.792
289 67.3204 23.6246 13.5689
290 1.65986 25.288 15.2986
291 0.00688557 23.6495 16.9053
292 1.69196 25.2934 18.5779
293 0.0401679 23.6755 20.1888
294 1.75795 25.3235 21.8526
295 0.0777576 23.6727 23.5928
296 1.74592 25.2884 25.2789
297 0.0683184 23.5829 26.9958
298 1.67925 25.2422 28.669
299 67.3726 23.5467 30.3069
300 1.65913 25.2084 31.9848
301 0.0185056 23.5443 33.5728
302 1.62432 25.2174 35.3194
303 0.0411951 23.5554 37.1196
304 1.74384 25.2102 38.8356
305 67.3954 23.5162 40.5051
306 1.66718 25.2853 42.0939
307 67.3977 23.5357 43.7998
308 1.70182 25.3366 45.4564
309 67.363 23.5723 47.0487
310 1.67003 25.2897 48.8297
311 67.3584 23.5102 50.5702
312 1.66539 25.2453 52.2942
313 67.3999 23.5839 54.0123
314 1.6888 25.1533 55.6327
315 67.3482 23.5488 57.2961
316 1.69366 25.1641 58.9805
317 0.0282572 23.6101 60.6962
318 1.75962 25.2606 62.2896
319 0.112823 23.5666 63.9334
320 1.74972 25.264 65.6476
321 0.170263 26.895 0.0628791
322 1.73726 28.6689 1.67155
323 0.123114 26.9585 3.35565
324 1.77097 28.6101 5.05899
325 0.122885 26.9966 6.74807
326 1.74559 28.6104 8.47292
327 67.3988 26.957 10.1323
328 1.68024 28.5885 11.8214
329 67.344 26.9097 13.5833
330 1.64889 28.635 15.2362
331 0.00577315 26.9285 16.9132
332 1.72188 28.626 18.5713
333 0.0661023 26.9746 20.1615
334 1.74661 28.6427 21.8841
335 67.3644 26.9889 23.6023
336 1.73879 28.6266 25.2629
337 67.3904 26.9705 26.9093
338 1.60656 28.5507 28.5928
339 67.3865 26.8899 30.3793
340 1.65771 28.6208 32.0029
341 67.3912 26.9355 33.611
342 1.67842 28.6565 35.35
343 67.3925 26.9501 37.1095
344 1.66071 28.6798 38.7689
345 67.3479 27.0197 40.4223
346 1.65656 28.6824 42.1609
347 0.0236472 27.035 43.7971
348 1.68058 28.7187 45.472
349 67.3525 26.9815 47.1468
350 1.67441 28.7367 48.8978
351 0.0441166 26.9943 50.6121
352 1.6946 28.6683 52.2389
353 0.0567412 26.9195 53.9831
354 1.68764 28.6631 55.6254
355 0.041617 26.924 57.2841
356 1.69916 28.5918 58.9855
357 0.0046248 26.9081 60.6375
358 1.69511 28.6221 62.3283
359 0.106941 26.8535 63.8769
360 1.73035 28.5551 65.6824
361 0.0698779 30.3662 67.3194
362 1.68499 32.0407 1.74388
363 0.116373 30.3292 3.4468
364 1.73433 32.0649 5.04005
365 0.101564 30.3116 6.7049
366 1.73985 32.0041 8.40947
367 0.0191813 30.3473 10.1411
368 1.67673 32.0291 11.7933
369 0.0195448 30.3625 13.5203
370 1.68088 31.9608 15.2779
371 67.3861 30.2993 16.8956
372 1.71487 31.9806 18.5622
373 67.3752 30.3158 20.23
374 1.74308 31.9418 21.942
375 67.3395 30.2761 23.6054
376 1.64915 32.0048 25.2423
377 67.3124 30.3044 26.9676
378 1.61628 32.1211 28.6224
379 67.3912 30.3583 30.3332
380 1.75533 32.0899 31.988
381 67.39 30.344 33.601
382 1.69944 32.1085 35.3386
383 67.3653 30.3631 37.0889
384 1.67953 32.1164 38.7702
385 67.3662 30.3612 40.4668
386 1.71002 32.0414 42.0911
387 0.0978385 30.3908 43.8071
388 1.691 32.044 45.5563
389 0.0849938 30.367 47.1519
390 1.72165 32.0065 48.9089
391 0.0102318 30.3613 50.5464
392 1.67327 32.0358 52.2335
393 0.0497563 30.3079 53.9237
394 1.69393 32.0163 55.6409
395 67.3926 30.3423 57.3015
396 1.64006 32.0662 58.9292
397 0.00129936 30.2961 60.637
398 1.69482 32.0633 62.3359
399 67.3881 30.3354 64.0276
400 1.71758 32.0993 65.5882
401 67.3714 33.7195 67.3623
402 1.65354 35.4045 1.76552
403 0.0285368 33.7214 3.39457
404 1.66859 35.3692 5.05704
405 0.0760109 33.6947 6.66558
406 1.645 35.327 8.35811
407 0.0396053 33.668 10.1666
408 1.6766 35.4207 11.8365
409 0.010559 33.644 13.5743
410 1.72658 35.4002 15.1914
411 67.3993 33.679 16.8636
412 1.69403 35.4072 18.4843
413 67.3502 33.6611 20.2442
414 1.63631 35.4235 21.935
415 67.3566 33.7449 23.6739
416 1.64213 35.3395 25.3105
417 67.3517 33.7257 26.9546
418 1.58672 35.4343 28.6577
419 67.3173 33.651 30.2724
420 1.65555 35.3722 31.9506
421 0.0667951 33.6653 33.7091
422 1.71766 35.3537 35.3422
423 67.385 33.7752 37.0854
424 1.74 35.4195 38.765
425 67.3416 33.7194 40.4017
426 1.73812 35.3373 42.1016
427 0.12907 33.6516 43.8398
428 1.72557 35.4019 45.5533
429 67.3946 33.698 47.1962
430 1.73954 35.386 48.8719
431 0.0626296 33.6298 50.5859
432 1.70356 35.4049 52.2879
433 0.0706266 33.7345 53.9748
434 1.73146 35.4619 55.5545
435 0.05154 33.7275 57.2296
436 1.6683 35.4315 58.92
437 0.0845359 33.7642 60.5956
438 1.70726 35.4079 62.348
439 0.00231244 33.7524 64.0759
440 1.72339 35.4375 65.6484
441 0.00442505 37.0849 67.3969
442 1.60461 38.7733 1.72257
443 67.3608 37.0913 3.37754
444 1.57786 38.7688 5.00833
445 0.00505897 37.102 6.69703
446 1.63534 38.802 8.42903
447 0.0327837 37.0971 10.0498
448 1.71771 38.794 11.784
449 0.0444647 37.0264 13.515
450 1.66112 38.8007 15.1392
451 0.0109326 37.0363 16.8207
452 1.6104 38.7318 18.421
453 67.3865 37.0809 20.203
454 1.65686 38.725 22.039
455 67.3579 37.0393 23.7088
456 1.65769 38.814 25.3269
457 0.00714858 36.9733 26.8637
458 1.5602 38.7398 28.5881
459 67.3426 37.0695 30.3647
460 1.63722 38.7589 31.9471
461 67.3698 37.0856 33.6893
462 1.66846 38.7055 35.3948
463 67.3895 36.9779 37.063
464 1.67518 38.7461 38.7002
465 67.3698 37.0523 40.4239
466 1.70378 38.7275 42.1368
467 67.3733 37.0655 43.785
468 1.7161 38.7102 45.5546
469 0.0457852 37.0517 47.2231
470 1.7701 38.758 48.856
471 0.0700245 37.1094 50.5681
472 1.80056 38.7713 52.2517
473 0.0833571 37.083 53.948
474 1.75726 38.7039 55.569
475 0.0772647 37.0871 57.177
476 1.76678 38.7839 58.9247
477 0.0615367 37.112 60.6749
478 1.83291 38.8074 62.3304
479 0.0576217 37.0999 64.0371
480 1.67428 38.814 65.7148
481 67.3859 40.4432 0.0358263
482 1.53526 42.1596 1.68371
483 67.3449 40.4445 3.30299
484 1.42772 42.1273 5.01952
485 67.3942 40.4862 6.75723
486 1.62944 42.1154 8.43178
487 67.3908 40.5051 10.0548
488 1.66643 42.1222 11.8256
489 67.3887 40.4872 13.474
490 1.68973 42.1 15.1327
491 67.3683 40.4516 16.8382
492 1.69204 42.0352 18.4547
493 67.3903 40.3651 20.1824
494 1.69131 42.0801 21.9572
495 0.00855835 40.4188 23.7485
496 1.70164 42.1315 25.3336
497 0.0430672 40.5175 26.9526
498 1.67042 42.1424 28.6402
499 67.3471 40.4511 30.3723
500 1.66255 42.1391 31.9847
501 67.3049 40.4164 33.6744
502 1.61959 42.1804 35.32
503 67.3509 40.4518 36.9166
504 1.67056 42.0898 38.7399
505 67.3857 40.4507 40.4851
506 1.71766 42.1436 42.1008
507 0.0592176 40.4708 43.7789
508 1.69711 42.1171 45.5813
509 0.108337 40.4485 47.238
510 1.74764 42.062 48.8712
511 0.10977 40.4373 50.5868
512 1.74893 41.991 52.1804
513 0.0727705 40.4515 53.9444
514 1.79943 42.1588 55.6927
515 0.218063 40.4908 57.247
516 1.86066 42.1888 58.9556
517 0.175392 40.4499 60.6478
518 1.79485 42.1052 62.3046
519 0.0556028 40.4625 64.0375
520 1.73007 42.1086 65.7232
521 67.3437 43.8442 67.394
522 1.63186 45.4321 1.6609
523 67.3543 43.8284 3.30376
524 1.6107 45.4558 5.01372
525 67.3491 43.8042 6.78271
526 1.65406 45.4624 8.40657
527 67.3647 43.8081 10.1001
528 1.755 45.5318 11.7662
529 67.3415 43.8787 13.4724
530 1.71863 45.4667 15.1407
531 0.0270821 43.8393 16.8441
532 1.75801 45.5987 18.5136
533 0.070751 43.8337 20.2005
534 1.77813 45.49 21.9662
535 0.0858754 43.817 23.6668
536 1.74185 45.5528 25.3536
537 0.0574589 43.8119 27.035
538 1.67614 45.5493 28.6266
539 0.0101769 43.8687 30.322
540 1.72746 45.6301 31.9557
541 0.0147429 43.8739 33.6331
542 1.76487 45.5928 35.3781
543 67.3893 43.8182 37.0127
544 1.69717 45.5374 38.7261
545 67.3825 43.835 40.4744
546 1.70956 45.5221 42.1079
547 0.0237138 43.8046 43.8288
548 1.67527 45.4781 45.5069
549 0.0643739 43.8022 47.1365
550 1.65312 45.5213 48.8571
551 0.0286856 43.7941 50.6021
552 1.52443 45.6275 52.2439
553 0.100838 43.7931 53.9079
554 1.67117 45.5727 55.738
555 0.186868 43.7887 57.2998
556 1.76744 45.5232 58.9413
557 0.0971391 43.8387 60.6496
558 1.77313 45.4931 62.316
559 0.0379194 43.8013 64.0402
560 1.67165 45.4959 65.7017
561 0.0253151 47.1624 0.00374487
562 1.71335 48.9196 1.66363
563 67.3652 47.1979 3.34996
564 1.672 48.8676 5.06492
565 67.3636 47.1723 6.72047
566 1.70955 48.884 8.4059
567 0.00392068 47.1526 10.0702
568 1.73111 48.8585 11.7571
569 67.3752 47.207 13.5059
570 1.70702 48.9212 15.1786
571 0.0336533 47.1898 16.765
572 1.79979 48.8753 18.567
573 0.0617651 47.19 20.3064
574 1.76473 48.8814 21.9148
575 0.0907935 47.2153 23.5746
576 1.82487 48.822 25.3304
577 0.00127385 47.1779 27.0755
578 1.71493 48.8208 28.6655
579 0.0412926 47.1966 30.2499
580 1.73584 48.8995 31.9664
581 0.043345 47.1884 33.7307
582 1.75205 48.8859 35.398
583 67.3926 47.196 37.0599
584 1.71696 48.9063 38.7275
585 67.3449 47.1884 40.4325
586 1.73072 48.8389 42.0549
587 67.3741 47.1875 43.8242
588 1.66459 48.8853 45.5498
589 67.3547 47.2003 47.197
590 1.67794 48.8987 48.8779
591 67.3168 47.1933 50.5213
592 1.50693 48.7479 52.2466
593 67.3912 47.2008 53.9915
594 1.68694 48.8771 55.6498
595 0.0445911 47.2211 57.2736
596 1.65371 48.8857 58.8713
597 0.038689 47.1959 60.6108
598 1.62749 48.894 62.3714
599 0.0091559 47.1609 64.0082
600 1.66929 48.9142 65.7218
601 0.00793113 50.5652 0.102564
602 1.6883 52.164 1.66671
603 0.0066662 50.5844 3.39346
604 1.63873 52.2219 5.06576
605 0.0181446 50.549 6.68973
606 1.68692 52.2202 8.4271
607 0.11562 50.5345 10.0277
608 1.68182 52.2413 11.7134
609 67.3965 50.6093 13.4997
610 1.71828 52.2147 15.2354
611 0.0175454 50.5411 16.8598
612 1.74177 52.242 18.5531
613 0.0777667 50.554 20.2379
614 1.72405 52.2438 21.9647
615 0.0908223 50.5148 23.6508
616 1.7271 52.2698 25.3237
617 0.0652243 50.5212 26.9966
618 1.75474 52.2072 28.6789
619 0.102844 50.5068 30.2783
620 1.74252 52.2495 32.0109
621 0.0962179 50.4869 33.7486
622 1.68295 52.2493 35.3258
623 0.0504922 50.542 37.0757
624 1.68839 52.2087 38.6928
625 0.0344547 50.569 40.4217
626 1.67278 52.3624 42.1763
627 0.0182533 50.5542 43.7937
628 1.68232 52.3163 45.481
629 67.3503 50.5774 47.2273
630 1.62183 52.2281 48.9211
631 67.3063 50.558 50.5868
632 1.64833 52.3305 52.2363
633 0.00172527 50.5243 53.9144
634 1.66554 52.2166 55.5996
635 0.0268717 50.5366 57.2117
636 1.64311 52.2528 58.9718
637 67.389 50.5209 60.6638
638 1.55399 52.166 62.3755
639 67.3956 50.5301 64.0247
640 1.64449 52.1473 65.7378
641 67.372 53.8932 0.0227436
642 1.66932 55.593 1.66292
643 67.3711 53.8282 3.36644
644 1.69084 55.5075 5.03263
645 0.0163247 53.8938 6.72084
646 1.70278 55.5977 8.4694
647 0.0659575 53.9765 10.0535
648 1.69989 55.6175 11.7433
649 0.00470316 53.9115 13.5284
650 1.71644 55.5879 15.2165
651 67.3866 53.9314 16.8492
652 1.68219 55.5751 18.5459
653 0.0763485 53.8904 20.2053
654 1.67712 55.5958 21.9221
655 0.0192686 53.9508 23.6811
656 1.67496 55.5789 25.3763
657 0.0147116 53.8692 26.9765
658 1.67307 55.5952 28.5631
659 0.00369392 53.8705 30.3073
660 1.74487 55.5293 32.0255
661 67.3528 54.031 33.7237
662 1.77414 55.534 35.3512
663 0.0223847 54.0014 37.0219
664 1.64782 55.5628 38.76
665 0.116224 53.9814 40.4328
666 1.66915 55.6292 42.1239
667 0.008001 54.0035 43.8673
668 1.70036 55.6447 45.4389
669 67.3978 53.943 47.1979
670 1.59559 55.6474 48.8909
671 67.3089 53.9774 50.5718
672 1.68149 55.6453 52.2322
673 0.01003 53.9575 53.9415
674 1.67141 55.6169 55.5643
675 67.3809 53.9632 57.2421
676 1.70683 55.5965 59.0116
677 67.2932 53.9217 60.6462
678 1.63432 55.6227 62.3521
679 67.3463 53.9089 64.0404
680 1.66097 55.6099 65.7162
681 67.289 57.2599 67.3662
682 1.70223 58.9453 1.6215
683 67.3957 57.2861 3.30725
684 1.68606 58.9661 5.03757
685 0.0302801 57.2524 6.82255
686 1.69017 58.9161 8.49475
687 0.0507959 57.298 10.0823
688 1.71469 58.9423 11.7885
689 0.0650189 57.211 13.5292
690 1.68419 59.0269 15.1922
691 0.0776485 57.3063 16.8679
692 1.69215 59.03 18.4434
693 0.0776886 57.3552 20.1034
694 1.6975 59.0497 21.9918
695 0.0342593 57.3337 23.7585
696 1.76926 59.0537 25.3704
697 0.0648116 57.3566 26.9581
698 1.71889 58.9857 28.6108
699 0.078812 57.3004 30.2431
700 1.6569 58.9122 32.0304
701 67.3273 57.213 33.7846
702 1.69999 58.9587 35.3885
703 67.3911 57.2384 37.0299
704 1.68362 59.0091 38.7932
705 0.0356536 57.2978 40.3651
706 1.66772 58.9828 42.0216
707 67.3959 57.3412 43.8489
708 1.70962 58.9762 45.5904
709 67.3461 57.3313 47.1969
710 1.65932 59.015 48.8924
711 0.00919921 57.3476 50.5652
712 1.72319 58.9666 52.2058
713 0.0586695 57.2993 53.8911
714 1.69654 58.9907 55.5596
715 0.0493527 57.2451 57.2052
716 1.70078 58.9679 58.9998
717 67.3451 57.2647 60.6711
718 1.65658 58.9606 62.3438
719 67.2579 57.312 64.1026
720 1.69082 58.9729 65.7179
721 67.378 60.6632 67.3549
722 1.66939 62.3548 1.6147
723 0.0161787 60.6189 3.30035
724 1.66963 62.3942 5.063
725 0.0302937 60.5473 6.78436
726 1.67367 62.4342 8.39394
727 0.0241075 60.6586 10.0946
728 1.64233 62.4157 11.8128
729 0.0660267 60.7779 13.4851
730 1.71785 62.3548 15.1915
731 0.00716388 60.6938 16.8094
732 1.69253 62.4208 18.566
733 67.3789 60.6609 20.1687
734 1.68721 62.3513 21.9291
735 0.020941 60.6425 23.714
736 1.69455 62.2929 25.2815
737 0.0847019 60.5317 26.986
738 1.7002 62.3567 28.6136
739 0.0362152 60.6194 30.2875
740 1.71571 62.4416 31.9901
741 67.383 60.6064 33.7096
742 1.68088 62.3349 35.3712
743 67.3604 60.6259 37.1323
744 1.76558 62.2412 38.8262
745 67.3466 60.5867 40.381
746 1.76169 62.2222 42.0134
747 67.399 60.6503 43.8386
748 1.70754 62.2953 45.5825
749 67.3644 60.6573 47.2818
750 1.67912 62.292 48.8665
751 0.00763483 60.6563 50.531
752 1.70862 62.2977 52.1744
753 0.0354911 60.6487 53.8824
754 1.73036 62.3499 55.6407
755 0.0365168 60.6717 57.3036
756 1.68806 62.3706 58.9942
757 67.38 60.6976 60.7013
758 1.70639 62.3719 62.3575
759 67.3002 60.6495 64.0138
760 1.70711 62.3108 65.6962
761 0.0146343 64.0503 0.0363839
762 1.69218 65.7061 1.69113
763 0.0501411 64.0863 3.31099
764 1.71058 65.7352 4.98509
765 0.0180247 64.204 6.66706
766 1.75168 65.6945 8.42409
767 67.3865 64.1008 10.2079
768 1.68962 65.8029 11.8266
769 0.0364117 64.0623 13.5239
770 1.67651 65.7679 15.1461
771 0.0287852 64.0648 16.7909
772 1.68702 65.7218 18.5914
773 0.019933 64.103 20.2213
774 1.67364 65.7424 21.9174
775 0.0417061 64.0783 23.6035
776 1.68617 65.7805 25.243
777 0.037157 64.087 26.9419
778 1.67313 65.7018 28.607
779 0.00477524 64.0548 30.3441
780 1.66582 65.6756 31.9985
781 0.0149667 63.9812 33.712
782 1.67925 65.6727 35.3291
783 0.0130459 63.9951 37.0918
784 1.64994 65.6891 38.7977
785 0.031559 63.9459 40.407
786 1.6791 65.6214 42.1151
787 67.3839 63.9043 43.7919
788 1.62343 65.6379 45.5658
789 67.3939 63.9335 47.2735
790 1.68304 65.6987 48.8466
791 67.3549 63.9897 50.538
792 1.69467 65.6615 52.2383
793 67.3604 63.9663 53.8787
794 1.6664 65.734 55.6398
795 67.323 63.9631 57.3046
796 1.66333 65.6858 58.9925
797 67.3338 63.9951 60.6538
798 1.6406 65.6749 62.2946
799 67.3574 63.9614 64.0278
800 1.64639 65.7264 65.6514
801 3.32684 67.337 67.3784
802 5.13069 1.6365 1.55603
803 3.37462 67.373 3.29085
804 5.08903 1.66731 5.0349
805 3.36393 0.00217929 6.69862
806 5.0694 1.64005 8.46196
807 3.35218 0.0320682 10.1708
808 4.99564 1.66493 11.7651
809 3.32212 0.0225194 13.4963
810 4.98895 1.75377 15.2064
811 3.35137 0.0569315 16.856
812 5.00878 1.6989 18.5325
813 3.38278 0.0152014 20.2016
814 5.01727 1.57015 21.9913
815 3.40375 0.0068029 23.6792
816 5.03805 1.65743 25.2777
817 3.41028 0.0388216 26.8857
818 5.07759 1.60457 28.5879
819 3.37389 67.3285 30.3268
820 5.08666 1.66884 32.0148
821 3.31236 67.3259 33.675
822 5.01589 1.68622 35.3576
823 3.33398 67.3182 37.0482
824 5.00126 1.69249 38.7312
825 3.3907 67.3656 40.5018
826 5.03429 1.72896 42.1665
827 3.34051 67.3802 43.7981
828 5.06364 1.7466 45.4595
829 3.37888 0.00126954 47.1578
830 5.05205 1.69613 48.8599
831 3.30025 0.02739 50.608
832 5.0599 1.69906 52.2849
833 3.38203 67.3816 53.8469
834 5.01061 1.71534 55.5965
835 3.3676 67.3942 57.3351
836 5.03719 1.68569 58.9832
837 3.38585 0.00908187 60.6526
838 5.07403 1.63148 62.4204
839 3.43145 67.2968 64.0545
840 5.06423 1.63344 65.7215
841 3.38148 3.36299 67.3611
842 5.08906 5.04486 1.62903
843 3.33999 3.35771 3.35744
844 5.13718 5.05417 4.99518
845 3.37549 3.32493 6.73149
846 5.04022 5.04889 8.44777
847 3.30962 3.33916 10.1529
848 5.02468 5.00373 11.8385
849 3.34841 3.32134 13.4971
850 5.05929 4.93316 15.1697
851 3.2989 3.3042 16.7791
852 5.03149 4.97603 18.5576
853 3.37342 3.26318 20.2743
854 5.03087 5.06707 21.8944
855 3.35493 3.27329 23.6807
856 4.94678 4.99472 25.2904
857 3.31672 3.32421 26.8719
858 5.08271 5.05094 28.6498
859 3.35718 3.36897 30.2697
860 5.17783 5.04003 31.9435
861 3.38587 3.38923 33.6592
862 5.06753 5.06961 35.3873
863 3.33372 3.45291 37.1
864 5.05561 5.08755 38.8063
865 3.34968 3.47697 40.4347
866 5.01739 5.04337 42.1232
867 3.39321 3.40307 43.811
868 5.05102 5.0054 45.498
869 3.3707 3.40492 47.1443
870 5.06663 4.95261 48.8533
871 3.35538 3.36593 50.5838
872 5.03812 4.96245 52.2668
873 3.31544 3.29462 53.913
874 5.00151 4.93834 55.4917
875 3.32222 3.35555 57.3308
876 5.04958 4.98491 59.0759
877 3.34157 3.35667 60.7075
878 5.03649 5.06724 62.425
879 3.33837 3.41313 64.0192
880 5.06062 5.01459 65.6908
881 3.3526 6.78388 67.2958
882 4.97945 8.39794 1.66317
883 3.30342 6.71493 3.34145
884 5.08415 8.37503 5.05931
885 3.42981 6.673 6.73054
886 5.00581 8.40351 8.39712
887 3.36367 6.66378 10.1743
888 4.99941 8.34516 11.8713
889 3.34146 6.61009 13.5116
890 5.00487 8.37044 15.122
891 3.39096 6.55022 16.7864
892 5.04928 8.25404 18.5591
893 3.29727 6.74326 20.2433
894 4.99239 8.32194 21.9244
895 3.30939 6.65087 23.6593
896 4.98892 8.43409 25.2866
897 3.34868 6.66493 26.8779
898 4.99571 8.35121 28.5923
899 3.31346 6.66041 30.3052
900 5.08327 8.33342 32.0241
901 3.40632 6.77829 33.7304
902 5.06837 8.39584 35.3581
903 3.36597 6.8083 37.1358
904 5.0431 8.43527 38.8379
905 3.35151 6.724 40.4297
906 5.09409 8.43804 42.0997
907 3.39015 6.80091 43.8592
908 5.03283 8.49864 45.602
909 3.34977 6.79475 47.205
910 5.06741 8.49125 48.7911
911 3.41788 6.74567 50.5096
912 5.06404 8.50863 52.1733
913 3.45439 6.78282 53.8321
914 5.03311 8.45627 55.6422
915 3.40472 6.67325 57.2923
916 5.06782 8.46283 59.0303
917 3.35896 6.7264 60.7207
918 5.05291 8.41717 62.3981
919 3.38115 6.72093 64.0245
920 5.0347 8.37324 65.6786
921 3.36654 10.1173 67.3453
922 4.98784 11.8174 1.63977
923 3.35049 10.1379 3.3229
924 4.97403 11.7731 4.9888
925 3.39259 10.1592 6.67006
926 5.00433 11.7225 8.3921
927 3.3714 10.1244 10.252
928 5.07745 11.7677 11.793
929 3.27448 10.1887 13.461
930 5.04063 11.8471 15.1825
931 3.34571 10.0804 16.8648
932 5.00015 11.857 18.5754
933 3.32904 10.0092 20.2386
934 5.01852 11.793 21.8553
935 3.30331 10.1335 23.4984
936 5.03734 11.783 25.245
937 3.31761 10.1433 26.9452
938 5.01596 11.787 28.6235
939 3.36607 10.1055 30.3535
940 5.08783 11.8721 32.069
941 3.40434 10.1059 33.7199
942 5.03318 11.847 35.4144
943 3.39474 10.0296 37.1128
944 5.00948 11.813 38.8447
945 3.33279 10.086 40.4668
946 5.0552 11.8353 42.066
947 3.35926 10.119 43.804
948 5.01319 11.7462 45.5307
949 3.35563 10.1387 47.2097
950 5.05295 11.8209 48.7419
951 3.34319 10.1156 50.362
952 5.02725 11.8608 52.1583
953 3.36076 10.1777 53.9442
954 5.07166 11.8515 55.6484
955 3.34549 10.2182 57.2516
956 5.02433 11.8121 58.9273
957 3.32682 10.1282 60.7632
958 5.05376 11.8433 62.383
959 3.41897 10.0925 64.0924
960 5.02008 11.8492 65.7522
961 3.34198 13.4962 0.0275226
962 5.0738 15.1371 1.64041
963 3.30637 13.4881 3.30671
964 5.02158 15.1437 4.97836
965 3.32694 13.4677 6.68468
966 5.04059 15.2017 8.35872
967 3.38964 13.4717 10.105
968 4.9798 15.2538 11.8148
969 3.35385 13.4689 13.4359
970 5.04121 15.2477 15.1512
971 3.32624 13.5687 16.869
972 4.93421 15.2886 18.6222
973 3.38181 13.6477 20.2887
974 5.00143 15.3312 21.863
975 3.47706 13.5438 23.5052
976 4.99901 15.2031 25.2495
977 3.34579 13.5084 27.0069
978 5.04939 15.2655 28.6373
979 3.32988 13.5239 30.3411
980 5.08612 15.2375 32.0599
981 3.26248 13.5762 33.6929
982 4.98779 15.2232 35.4243
983 3.30414 13.517 37.117
984 5.02482 15.161 38.778
985 3.3063 13.5035 40.4845
986 5.03063 15.0924 42.0955
987 3.47652 13.5291 43.8371
988 5.11289 15.2301 45.5341
989 3.46582 13.4953 47.1259
990 5.06914 15.1434 48.7586
991 3.34429 13.5342 50.4699
992 5.08018 15.0658 52.2582
993 3.39054 13.5293 53.9513
994 5.0249 15.1125 55.5964
995 3.35503 13.5078 57.2601
996 4.98017 15.2014 58.9323
997 3.31489 13.489 60.6367
998 5.01253 15.1847 62.3588
999 3.38061 13.4928 64.1176
1000 5.01351 15.156 65.7774
1001 3.33239 16.8337 0.0140945
1002 5.01162 18.5412 1.63708
1003 3.3566 16.8495 3.34054
1004 5.07017 18.5356 5.01795
1005 3.3434 16.8253 6.6204
1006 5.09802 18.4985 8.35898
1007 3.38975 16.8519 10.0699
1008 5.06232 18.4716 11.8537
1009 3.34657 16.8866 13.5366
1010 5.07732 18.5538 15.2045
1011 3.32115 16.937 16.907
1012 5.07847 18.5926 18.6021
1013 3.35704 16.9259 20.2453
1014 4.95133 18.55 21.9383
1015 3.39268 16.8758 23.6255
1016 4.92555 18.6432 25.1796
1017 3.42094 16.9395 26.9078
1018 5.00283 18.6363 28.6684
1019 3.38936 16.9149 30.357
1020 5.02557 18.5903 32.0247
1021 3.318 16.9012 33.7179
1022 5.04326 18.528 35.3577
1023 3.26438 16.835 37.0956
1024 5.06818 18.5633 38.7675
1025 3.37878 16.8601 40.5115
1026 4.99423 18.6047 42.1297
1027 3.51112 16.8716 43.8288
1028 5.13391 18.4808 45.4688
1029 3.42909 16.8043 47.0142
1030 5.03924 18.47 48.8126
1031 3.42587 16.8053 50.6207
1032 5.06403 18.5847 52.2989
1033 3.38313 16.833 53.8747
1034 5.03775 18.5613 55.6017
1035 3.30913 16.8301 57.3181
1036 5.05065 18.4642 58.9292
1037 3.26919 16.8749 60.6094
1038 5.05466 18.5205 62.4059
1039 3.29795 16.8417 64.0648
1040 5.03363 18.5403 65.7353
1041 3.4129 20.1932 67.397
1042 5.0453 21.8594 1.64622
1043 3.32159 20.1488 3.33639
1044 5.05118 21.9027 4.9846
1045 3.36107 20.227 6.69794
1046 5.17522 21.9083 8.45597
1047 3.3986 20.1996 10.0873
1048 5.12985 21.9402 11.8527
1049 3.38516 20.2402 13.4953
1050 5.09917 21.9093 15.2683
1051 3.39579 20.2219 16.9567
1052 5.1421 21.9375 18.5393
1053 3.40337 20.2152 20.248
1054 5.12126 21.8906 21.8934
1055 3.37675 20.3011 23.5948
1056 5.07776 21.9546 25.3452
1057 3.38259 20.2551 26.9842
1058 5.04494 21.9091 28.5994
1059 3.34328 20.2224 30.3414
1060 4.98132 21.8916 31.9828