ITEM: TIMESTEP
0
ITEM: NUMBER OF ATOMS
16000
ITEM: BOX BOUNDS pp pp pp
0.0000000000000000e+00 6.8799999999999997e+01
0.0000000000000000e+00 6.8799999999999997e+01
0.0000000000000000e+00 6.8799999999999997e+01
ITEM: ATOMS id x y z
1 68.7999 0.037698 68.772
2 1.76762 1.79969 1.65583
3 0.0318608 0.0429487 3.46394
4 1.76075 1.6884 5.15285
5 0.0213147 0.0145395 6.88694
6 1.70606 1.74804 8.61404
7 68.7877 68.7099 10.3018
8 1.65075 1.7905 11.9833
9 0.0381082 68.769 13.7892
10 1.70973 1.80698 15.5206
11 0.000816823 0.0913485 17.1668
12 1.69103 1.74892 18.8518
13 68.7754 68.7947 20.6535
14 1.75108 1.75161 22.4187
15 68.7663 68.7659 24.0182
16 1.7655 1.6941 25.7061
17 68.7846 0.0492438 27.4844
18 1.70787 1.7175 29.2113
19 0.0176004 0.0304552 30.9564
20 1.70433 1.75673 32.6539
21 0.000662603 68.7858 34.4864
22 1.77816 1.75851 36.125
23 0.0164058 0.0548955 37.8146
24 1.75374 1.74996 39.5758
25 68.7742 0.107244 41.1792
26 1.6882 1.71244 42.8818
27 0.0499087 0.00236816 44.681
28 1.68583 1.71111 46.4788
29 68.7964 68.7643 48.0445
30 1.66585 1.63454 49.925
31 68.7548 68.743 51.7689
32 1.73691 1.69917 53.3074
33 0.0219422 68.7652 55.0197
34 1.72243 1.72379 56.7885
35 0.0108063 68.7862 58.4842
36 1.79694 1.64235 60.2563
37 0.0635603 68.7991 61.9796
38 1.71508 1.64871 63.6453
39 0.0306391 68.7743 65.3312
40 1.75324 1.73607 67.1287
41 68.7402 3.55431 0.000983798
42 1.73093 5.20095 1.7549
43 0.0243967 3.45292 3.50685
44 1.79897 5.20018 5.24443
45 68.7939 3.42362 6.84023
46 1.75517 5.14948 8.59889
47 68.77 3.54308 10.3135
48 1.73424 5.16478 12.0592
49 68.7509 3.44973 13.834
50 1.63728 5.14751 15.4445
51 68.7696 3.49198 17.1693
52 1.68644 5.16906 18.8252
53 68.7577 3.48217 20.6274
54 1.80634 5.14378 22.351
55 68.7087 3.50543 24.0968
56 1.78274 5.10138 25.8097
57 68.7656 3.43525 27.4881
58 1.70084 5.14134 29.3051
59 68.7751 3.48861 30.9322
60 1.668 5.17452 32.6192
61 68.7894 3.44528 34.4075
62 1.66285 5.18343 36.1982
63 68.7481 3.44371 37.8967
64 1.63616 5.13169 39.5228
65 0.0116662 3.47941 41.1884
66 1.72937 5.12304 42.8978
67 0.0444999 3.4316 44.6115
68 1.73477 5.12452 46.4153
69 0.0194736 3.43677 48.1681
70 1.78138 5.13801 49.86
71 68.7818 3.52451 51.6458
72 1.65703 5.12706 53.4506
73 0.0362228 3.39095 55.0941
74 1.68154 5.16617 56.7803
75 68.7787 3.4544 58.4772
76 1.69642 5.09629 60.2478
77 0.00402406 3.39228 62.0271
78 1.69316 5.17109 63.6433
79 0.0157901 3.43906 65.2958
80 1.7109 5.20094 67.0584
81 68.7549 6.80489 68.789
82 1.66981 8.5982 1.73759
83 68.7481 6.88583 3.49896
84 1.69781 8.63793 5.16209
85 0.00113939 6.9078 6.86944
86 1.74665 8.55737 8.5725
87 0.00522097 6.91647 10.3185
88 1.71009 8.60773 12.1051
89 68.7481 6.87575 13.7507
90 1.62461 8.55122 15.4032
91 0.0177224 6.89148 17.0877
92 1.69632 8.5402 18.8453
93 68.791 6.85596 20.6429
94 1.714 8.53708 22.4042
95 68.6793 6.73931 24.0842
96 1.67759 8.62397 25.8345
97 68.7068 6.80544 27.5719
98 1.67384 8.57679 29.2152
99 68.6924 6.90531 31.0055
100 1.6082 8.59741 32.7201
101 0.0223262 6.87086 34.3412
102 1.61662 8.62033 36.0715
103 68.7542 6.85277 37.8209
104 1.66295 8.58965 39.5436
105 68.7632 6.79579 41.2414
106 1.71427 8.59458 42.9326
107 0.0671099 6.88078 44.679
108 1.75427 8.6174 46.431
109 0.131554 6.9048 48.1201
110 1.7296 8.66346 49.8828
111 0.0218066 6.85331 51.64
112 1.65441 8.57305 53.3449
113 0.00246277 6.89617 55.1037
114 1.71794 8.56127 56.8186
115 68.7481 6.84707 58.4779
116 1.70861 8.5784 60.2327
117 68.7433 6.89292 61.9605
118 1.67939 8.62904 63.6344
119 0.0406908 6.91496 65.36
120 1.67163 8.58768 67.0902
121 68.7279 10.3926 68.7605
122 1.65143 12.0342 1.75108
123 68.6914 10.3859 3.4626
124 1.70012 12.0087 5.19494
125 68.7274 10.3976 6.93468
126 1.73734 11.9957 8.59798
127 0.0221633 10.2837 10.3252
128 1.69694 12.0118 12.0909
129 68.7423 10.2162 13.7656
130 1.68014 12.0145 15.4559
131 68.7882 10.2266 17.1441
132 1.72009 12.059 18.801
133 0.0134436 10.3031 20.6352
134 1.77138 12.0777 22.3766
135 68.737 10.375 24.0857
136 1.68754 12.0935 25.835
137 68.6879 10.4035 27.6089
138 1.69134 12.1241 29.2811
139 68.7075 10.3272 30.9558
140 1.67141 12.1238 32.6716
141 68.7447 10.2828 34.3525
142 1.71006 12.0644 36.0938
143 68.7775 10.328 37.7957
144 1.65502 12.1138 39.4909
145 68.7521 10.3102 41.2165
146 1.73543 12.0645 42.9404
147 0.027541 10.3417 44.7307
148 1.75112 12.1092 46.4886
149 0.0620202 10.3659 48.1685
150 1.7995 12.1198 49.9089
151 0.0266674 10.3894 51.6951
152 1.83189 12.0699 53.2982
153 68.7642 10.289 55.0102
154 1.79814 12.0818 56.7341
155 68.7888 10.3335 58.5214
156 1.73611 12.0686 60.3639
157 68.727 10.3391 61.9579
158 1.72374 11.9939 63.5888
159 68.713 10.3522 65.35
160 1.67585 12.0243 67.0271
161 68.6502 13.7349 68.7768
162 1.71817 15.4764 1.7577
163 68.6631 13.7399 3.43825
164 1.66183 15.4676 5.14292
165 68.7795 13.685 6.99299
166 1.71325 15.4381 8.57649
167 0.0240613 13.7421 10.2451
168 1.77187 15.4734 12.0694
169 68.7985 13.7749 13.7859
170 1.77487 15.3877 15.4879
171 68.7008 13.7376 17.103
172 1.7794 15.3494 18.7975
173 68.7901 13.6708 20.6197
174 1.73365 15.5102 22.3302
175 0.0135922 13.7494 24.026
176 1.73646 15.4485 25.8059
177 0.0144299 13.7859 27.6408
178 1.75764 15.518 29.303
179 68.7893 13.7862 30.8694
180 1.76087 15.4174 32.6561
181 68.7677 13.8679 34.4251
182 1.77845 15.5097 36.2053
183 0.0752737 13.7728 37.8001
184 1.74607 15.5045 39.4954
185 0.00656487 13.834 41.2395
186 1.75874 15.5443 43.007
187 0.0493471 13.8258 44.7361
188 1.70087 15.5396 46.4682
189 0.0635331 13.8522 48.1969
190 1.79002 15.4764 49.876
191 0.0460357 13.7842 51.6307
192 1.87831 15.4443 53.2974
193 0.0244889 13.7305 54.9324
194 1.73965 15.4724 56.7627
195 0.00803955 13.7562 58.468
196 1.72993 15.5106 60.1074
197 68.7439 13.7993 61.9944
198 1.67911 15.4352 63.682
199 68.7188 13.7692 65.4192
200 1.65156 15.5127 67.1123
201 68.7379 17.2007 0.0186883
202 1.62423 18.9392 1.76876
203 68.6917 17.2563 3.41407
204 1.71862 18.9927 5.16923
205 0.0152046 17.2798 6.93341
206 1.6949 18.9628 8.58275
207 68.7924 17.2653 10.3269
208 1.7052 18.9631 12.0503
209 68.7683 17.1659 13.7412
210 1.72172 18.8844 15.4308
211 68.7906 17.1541 17.1434
212 1.69704 18.9318 18.8717
213 68.787 17.2944 20.5314
214 1.74794 18.8869 22.3533
215 0.0051193 17.1941 24.1626
216 1.74874 18.917 25.8052
217 0.0720635 17.1612 27.4674
218 1.72931 18.8482 29.2603
219 68.795 17.1361 30.9334
220 1.7207 18.8855 32.613
221 0.0392259 17.1396 34.3831
222 1.75216 18.8596 36.1829
223 0.133123 17.1868 37.8888
224 1.8005 18.9524 39.5104
225 0.0748792 17.2368 41.2974
226 1.77484 18.9356 43.0281
227 68.7762 17.178 44.7305
228 1.73879 18.8748 46.4094
229 0.0193371 17.2188 48.1974
230 1.73622 18.8922 49.8878
231 0.0408583 17.1189 51.5827
232 1.7298 18.9528 53.273
233 0.0290685 17.2137 54.9983
234 1.71883 18.8697 56.7267
235 68.7882 17.2687 58.4925
236 1.72634 18.8901 60.1528
237 68.7937 17.1456 61.9242
238 1.63849 18.8494 63.72
239 68.7285 17.165 65.4588
240 1.69327 18.9033 67.1068
241 68.7429 20.5616 0.0225418
242 1.72196 22.3042 1.75836
243 68.7758 20.5543 3.47086
244 1.64514 22.2537 5.15509
245 68.7286 20.6182 6.87195
246 1.64901 22.4001 8.61617
247 68.7382 20.6281 10.2635
248 1.67378 22.3593 11.9745
249 68.7718 20.713 13.7727
250 1.68254 22.3485 15.4217
251 0.0185882 20.6175 17.1829
252 1.76848 22.3561 18.9315
253 0.0114706 20.6006 20.605
254 1.73953 22.2773 22.3924
255 68.7517 20.5012 24.0898
256 1.716 22.3088 25.7645
257 0.0714769 20.5502 27.5102
258 1.73506 22.2568 29.2533
259 0.0298591 20.5949 30.9423
260 1.70585 22.3484 32.6695
261 0.0160229 20.5864 34.4578
262 1.72532 22.3731 36.1771
263 68.7921 20.6041 37.8426
264 1.76153 22.3847 39.4826
265 0.058144 20.6781 41.2357
266 1.737 22.3252 42.9828
267 0.011108 20.6922 44.6925
268 1.66041 22.3919 46.4588
269 0.0887416 20.6723 48.2147
270 1.67156 22.3795 49.8987
271 68.7968 20.6939 51.5675
272 1.7627 22.3444 53.3021
273 68.783 20.66 55.0597
274 1.78318 22.3592 56.7509
275 0.0206991 20.5715 58.5015
276 1.74136 22.3193 60.169
277 68.7972 20.5641 61.8711
278 1.74266 22.3598 63.5569
279 68.769 20.6253 65.4519
280 1.64034 22.4382 67.1923
281 68.6861 24.075 0.163036
282 1.66973 25.8791 1.79877
283 68.758 24.0911 3.46941
284 1.61683 25.8971 5.07307
285 0.000929444 24.1313 6.92656
286 1.72171 25.8532 8.71082
287 68.7838 24.1948 10.2497
288 1.73116 25.8491 12.0129
289 0.0304038 24.0693 13.7373
290 1.79264 25.8386 15.4021
291 0.00939839 24.1093 17.1804
292 1.78644 25.8358 18.8048
293 0.0310915 24.0799 20.6552
294 1.79638 25.796 22.4801
295 0.0320384 24.0947 24.086
296 1.74795 25.8243 25.8564
297 0.0269319 24.0325 27.5389
298 1.69593 25.8771 29.2312
299 68.7667 24.1248 30.9561
300 1.68533 25.8484 32.6812
301 68.7489 24.0877 34.4237
302 1.68614 25.7877 36.1301
303 0.0114023 24.0334 37.8132
304 1.70792 25.7518 39.5846
305 0.018963 24.035 41.3011
306 1.72507 25.7603 42.9725
307 0.00178494 24.0577 44.6868
308 1.72848 25.7651 46.4526
309 68.7762 24.0357 48.1407
310 1.67273 25.7383 49.8548
311 68.7333 24.048 51.5793
312 1.74294 25.738 53.3241
313 68.7921 24.0742 55.058
314 1.78128 25.8087 56.7856
315 68.7926 24.0968 58.4789
316 1.76157 25.7862 60.1995
317 68.7953 24.0629 61.8932
318 1.69837 25.7898 63.6664
319 68.7297 24.0454 65.3377
320 1.62521 25.7472 67.1015
321 0.0532417 27.589 0.0553804
322 1.7348 29.1826 1.70869
323 68.757 27.5401 3.36803
324 1.66086 29.0761 5.03425
325 0.000384719 27.4543 6.95671
326 1.68994 29.1586 8.67891
327 68.7837 27.4454 10.3095
328 1.71121 29.1202 11.9856
329 0.0480591 27.4984 13.6916
330 1.66956 29.2016 15.4585
331 68.7867 27.5456 17.1518
332 1.81825 29.2167 18.9491
333 0.0382156 27.5041 20.6486
334 1.73648 29.2574 22.3682
335 68.7527 27.5502 24.1718
336 1.81596 29.2047 25.7651
337 68.7813 27.6247 27.5641
338 1.74651 29.1945 29.2585
339 68.7005 27.6384 31.0136
340 1.69934 29.176 32.6728
341 68.7503 27.5292 34.4157
342 1.80158 29.1837 36.1208
343 0.0097575 27.5521 37.852
344 1.86985 29.2331 39.5494
345 0.000910399 27.5325 41.2414
346 1.71984 29.202 42.9351
347 68.7915 27.496 44.6885
348 1.71812 29.1985 46.4739
349 0.000760225 27.4823 48.1817
350 1.76497 29.2233 49.8984
351 0.00496206 27.4547 51.5681
352 1.78012 29.1814 53.3173
353 0.0568826 27.4233 55.0401
354 1.77984 29.1901 56.7645
355 0.0500004 27.4986 58.5195
356 1.67264 29.2313 60.2561
357 0.0228513 27.478 61.9682
358 1.69816 29.3078 63.6838
359 68.7831 27.4841 65.3665
360 1.6643 29.3066 67.1175
361 0.0769114 30.9749 0.00229911
362 1.65099 32.704 1.67283
363 0.0154661 30.9504 3.44753
364 1.67192 32.7414 5.07642
365 0.0173349 30.9501 6.8329
366 1.72871 32.5661 8.66953
367 0.0190558 30.9033 10.3347
368 1.71565 32.6263 12.0096
369 0.0185584 30.8567 13.7671
370 1.6496 32.6415 15.6199
371 68.7997 30.9502 17.1511
372 1.76865 32.699 18.8701
373 0.0375488 31.0057 20.5883
374 1.80843 32.5715 22.366
375 0.00737223 30.9229 24.0751
376 1.7406 32.6666 25.8067
377 0.023759 31.0003 27.5617
378 1.75022 32.7017 29.2649
379 0.025652 30.9217 30.9713
380 1.78269 32.693 32.6783
381 0.0617675 30.9247 34.4611
382 1.80955 32.7483 36.1153
383 0.0434772 30.9105 37.7798
384 1.72815 32.6453 39.5672
385 0.0343634 30.821 41.2596
386 1.72861 32.6889 42.992
387 0.0051303 30.9285 44.6968
388 1.73018 32.6604 46.3972
389 0.0497866 30.9239 48.1098
390 1.75749 32.6227 49.8249
391 0.00879743 30.9581 51.6084
392 1.80247 32.7494 53.4478
393 0.0831389 31.0077 55.0962
394 1.82691 32.7178 56.8004
395 0.0518032 30.9488 58.4714
396 1.8249 32.7359 60.252
397 0.0318609 31.0714 62.001
398 1.81249 32.6801 63.7012
399 0.00435197 31.0087 65.3992
400 1.73122 32.6716 67.0678
401 0.0209336 34.3272 0.0120088
402 1.68779 36.0778 1.63569
403 68.7706 34.4033 3.42029
404 1.70474 36.1384 5.13695
405 68.7939 34.3609 6.90163
406 1.69796 36.1139 8.59444
407 68.7761 34.3473 10.2112
408 1.66832 36.0671 12.0325
409 0.0309265 34.3429 13.7745
410 1.75389 36.0843 15.543
411 0.0616216 34.3939 17.2132
412 1.73411 36.0765 18.9003
413 0.0750157 34.3182 20.6469
414 1.73836 36.1786 22.3708
415 0.045171 34.3325 24.0761
416 1.71382 36.1655 25.8201
417 0.0585968 34.4078 27.5616
418 1.74454 36.1145 29.2643
419 0.0711758 34.3894 30.983
420 1.78436 36.1208 32.6422
421 0.126626 34.3744 34.3616
422 1.68691 36.0741 36.1102
423 0.0674537 34.4092 37.8247
424 1.72942 36.1112 39.5328
425 68.7916 34.4378 41.2909
426 1.66999 36.0927 42.9728
427 0.0370659 34.3908 44.733
428 1.74537 36.0868 46.4245
429 0.0521291 34.3935 48.0522
430 1.73298 36.1527 49.8173
431 0.0862757 34.4172 51.6118
432 1.81029 36.1322 53.3575
433 0.115697 34.4211 55.0845
434 1.76059 36.1518 56.7583
435 0.0537573 34.4397 58.504
436 1.75967 36.1675 60.2239
437 0.0425315 34.3738 62.0046
438 1.75344 36.0543 63.6776
439 0.0263093 34.4482 65.3053
440 1.77063 36.095 67.0596
441 68.7706 37.9314 0.0165939
442 1.74324 39.6208 1.74117
443 0.00233329 37.8496 3.3847
444 1.68811 39.5699 5.10123
445 68.7667 37.8255 6.90352
446 1.67484 39.5457 8.60119
447 0.0153484 37.8756 10.2871
448 1.6539 39.5468 11.9879
449 0.00404544 37.8563 13.8003
450 1.74849 39.6267 15.53
451 0.0919482 37.8003 17.2552
452 1.72673 39.5599 18.9639
453 0.0510398 37.9107 20.6446
454 1.80706 39.5872 22.3408
455 0.0182646 38.0124 24.0955
456 1.82944 39.6271 25.7777
457 0.0248262 37.9015 27.5973
458 1.86931 39.5753 29.2467
459 0.00222254 37.8334 30.9291
460 1.80631 39.5313 32.66
461 0.00708151 37.8592 34.375
462 1.72482 39.5738 36.0931
463 68.7387 37.8763 37.791
464 1.74826 39.5807 39.4975
465 68.7892 37.8646 41.3281
466 1.72135 39.5131 43.0374
467 0.0588927 37.856 44.7183
468 1.74022 39.6213 46.4666
469 0.117832 37.8114 48.0554
470 1.72011 39.5684 49.9624
471 68.745 37.7773 51.554
472 1.69363 39.5343 53.2987
473 0.0175952 37.8675 55.0998
474 1.73936 39.6035 56.6989
475 0.0689311 37.8748 58.4772
476 1.66371 39.5902 60.1876
477 0.0149231 37.8808 62.0385
478 1.76029 39.5859 63.7805
479 0.0750769 37.8038 65.3343
480 1.77773 39.5915 67.0648
481 68.6697 41.2756 68.7992
482 1.69593 42.9866 1.79768
483 68.7092 41.2743 3.3949
484 1.69654 42.9913 5.16014
485 68.7958 41.1882 6.85494
486 1.70466 43.0072 8.582
487 0.0054139 41.2574 10.2946
488 1.73924 43.0736 12.0026
489 0.00434936 41.2912 13.8013
490 1.76856 43.0154 15.5786
491 68.7586 41.3507 17.2746
492 1.72249 43.1029 18.9951
493 68.7527 41.3466 20.6932
494 1.73909 43.0629 22.3576
495 68.7695 41.3542 24.0688
496 1.72531 43.0438 25.8074
497 0.0235382 41.3349 27.4609
498 1.75672 43.0551 29.2226
499 0.0393229 41.2934 30.9374
500 1.72165 43.0775 32.6594
501 68.7932 41.2484 34.4494
502 1.74612 43.0967 36.1339
503 0.0150896 41.2962 37.7794
504 1.74847 43.0224 39.4677
505 0.0567313 41.2457 41.2833
506 1.73338 43.0702 43.0487
507 0.00644764 41.2987 44.7439
508 1.78862 43.0155 46.4801
509 0.0568987 41.2974 48.1569
510 1.77132 43.0473 49.879
511 0.0618025 41.3795 51.6396
512 1.69994 42.9954 53.2903
513 68.7609 41.3341 54.9879
514 1.68032 43.0691 56.7057
515 68.7652 41.3019 58.4685
516 1.58433 43.0186 60.3223
517 68.6391 41.2864 62.0507
518 1.66036 43.0224 63.6094
519 68.7502 41.3475 65.3889
520 1.67889 43.0196 67.0808
521 68.7613 44.6851 0.032005
522 1.63998 46.4472 1.82208
523 68.7394 44.746 3.4524
524 1.66625 46.4848 5.16451
525 0.0204811 44.741 6.83178
526 1.72742 46.5054 8.52983
527 0.0390893 44.7486 10.2745
528 1.72088 46.4932 12.0346
529 0.0331357 44.7386 13.8251
530 1.68795 46.5064 15.5678
531 68.7741 44.7789 17.2706
532 1.70364 46.4783 18.9449
533 68.7464 44.8057 20.6954
534 1.66619 46.4879 22.4131
535 68.777 44.8045 24.0641
536 1.67985 46.5004 25.778
537 68.7979 44.7877 27.5154
538 1.81828 46.4765 29.2767
539 0.0031579 44.7594 30.884
540 1.7419 46.4841 32.6024
541 68.788 44.7639 34.3963
542 1.66881 46.4644 36.1724
543 68.7053 44.6611 37.8304
544 1.69288 46.3832 39.4606
545 0.0349387 44.6873 41.2716
546 1.72172 46.4633 43.0043
547 0.0569353 44.7034 44.7575
548 1.68594 46.4199 46.4825
549 68.7851 44.7253 48.1402
550 1.66134 46.4855 49.8676
551 68.7878 44.7378 51.5916
552 1.68133 46.4687 53.2765
553 68.7894 44.7511 54.9003
554 1.66427 46.4068 56.6763
555 68.7025 44.7961 58.5384
556 1.63554 46.4536 60.2262
557 68.6486 44.7811 61.9689
558 1.75497 46.4408 63.6807
559 68.6779 44.6848 65.3435
560 1.74826 46.37 67.0563
561 68.7932 48.1281 0.0634775
562 1.66064 49.8895 1.72191
563 68.7798 48.1193 3.49024
564 1.69102 49.8992 5.17187
565 68.7777 48.1795 6.8058
566 1.71687 49.9046 8.54935
567 68.7533 48.2339 10.2814
568 1.73835 49.8978 12.0537
569 68.7375 48.1974 13.7832
570 1.67329 49.9209 15.4421
571 68.7958 48.1578 17.2638
572 1.66374 49.8958 19.0187
573 68.7394 48.1922 20.7208
574 1.66653 49.9139 22.3936
575 68.7347 48.0921 24.0844
576 1.69729 49.8662 25.7692
577 68.7633 48.1323 27.4757
578 1.73157 49.8369 29.2931
579 0.00425147 48.1665 30.92
580 1.76702 49.887 32.7018
581 68.7947 48.2006 34.3533
582 1.74451 49.8689 36.095
583 0.0789891 48.2402 37.8356
584 1.76524 49.9485 39.5141
585 0.0184337 48.2563 41.2451
586 1.72813 50 43.0381
587 0.0520927 48.2652 44.7663
588 1.68625 49.974 46.4135
589 0.0052991 48.2394 48.0889
590 1.63975 49.8668 49.7764
591 68.77 48.2049 51.6066
592 1.74358 49.8159 53.3375
593 68.7424 48.1358 54.9934
594 1.71583 49.8184 56.6922
595 68.7664 48.1309 58.4814
596 1.74111 49.8437 60.2267
597 68.7204 48.128 61.9694
598 1.70634 49.8474 63.6591
599 0.0117395 48.1792 65.4604
600 1.62659 49.8528 67.1221
601 0.0586649 51.6391 0.00889808
602 1.65589 53.2718 1.74972
603 68.7981 51.6279 3.49146
604 1.72008 53.3165 5.15217
605 0.0110079 51.6696 6.8059
606 1.75155 53.3429 8.59599
607 68.7882 51.6023 10.291
608 1.6922 53.3581 12.0631
609 68.7122 51.6632 13.7496
610 1.73247 53.3251 15.4475
611 68.7963 51.6267 17.2715
612 1.60672 53.3299 19.036
613 0.00474444 51.6579 20.7244
614 1.74969 53.3124 22.3569
615 0.0450599 51.6153 24.0369
616 1.72825 53.3272 25.7683
617 68.7799 51.5772 27.5662
618 1.75264 53.3314 29.2644
619 0.0266307 51.6186 30.9504
620 1.84272 53.2878 32.7074
621 0.0481788 51.5651 34.4268
622 1.79427 53.3145 36.0858
623 0.0554238 51.6394 37.8143
624 1.81673 53.3814 39.5438
625 0.0395362 51.6762 41.2564
626 1.71788 53.3592 43.005
627 0.0271809 51.6496 44.6572
628 1.69267 53.3239 46.3273
629 68.7777 51.6131 48.1004
630 1.64696 53.3363 49.852
631 0.0134629 51.5679 51.5973
632 1.72687 53.3462 53.312
633 68.7615 51.5946 55.0126
634 1.69885 53.3339 56.6971
635 68.7828 51.5699 58.47
636 1.65884 53.2909 60.2349
637 68.7724 51.5655 61.9528
638 1.70514 53.3306 63.6158
639 0.0188711 51.5949 65.4639
640 1.62605 53.3692 67.1261
641 68.7388 55.0141 0.0620653
642 1.71304 56.7112 1.72907
643 0.0270441 55.0456 3.37697
644 1.75036 56.6275 5.15459
645 0.0104359 54.9918 6.90891
646 1.76875 56.7534 8.63553
647 68.7985 55.0392 10.2648
648 1.6932 56.7293 12.0344
649 0.0044018 55.0217 13.8057
650 1.71878 56.7181 15.4441
651 68.7593 55.0274 17.1824
652 1.73068 56.7683 18.897
653 0.0192381 54.925 20.6566
654 1.79506 56.7307 22.3856
655 0.0283422 55.0034 24.0233
656 1.77858 56.7059 25.8063
657 0.0918036 54.9721 27.6298
658 1.72707 56.7433 29.1895
659 0.116718 55.0785 30.8721
660 1.70387 56.7724 32.6093
661 0.014854 55.0388 34.3934
662 1.77951 56.6602 36.1499
663 68.7767 55.0647 37.7688
664 1.63527 56.7799 39.5728
665 68.7999 54.9768 41.2849
666 1.7044 56.6917 42.9738
667 68.7865 55.0304 44.6517
668 1.649 56.6698 46.3896
669 68.798 55.006 48.1359
670 1.61546 56.755 49.8576
671 68.7769 55.1538 51.6707
672 1.66445 56.791 53.3074
673 68.7714 55.1023 54.9769
674 1.65201 56.7903 56.723
675 68.7578 55.0918 58.4541
676 1.64846 56.8319 60.2224
677 68.7492 55.0693 61.991
678 1.71746 56.8271 63.72
679 68.7825 55.0642 65.2919
680 1.6771 56.8176 67.0498
681 68.7306 58.4741 0.0214548
682 1.67533 60.2853 1.75554
683 0.0132636 58.468 3.47646
684 1.7391 60.3046 5.22357
685 68.7803 58.5281 6.86589
686 1.72802 60.2267 8.56533
687 68.7714 58.5276 10.3331
688 1.75614 60.2728 12.0008
689 0.0198995 58.5607 13.7301
690 1.81004 60.2602 15.4418
691 68.7773 58.5454 17.1988
692 1.79326 60.2631 18.9481
693 0.0472439 58.5387 20.5371
694 1.70589 60.2054 22.3236
695 0.0243565 58.4359 24.0743
696 1.74729 60.196 25.792
697 0.0845513 58.4719 27.6344
698 1.72039 60.1842 29.2081
699 0.0509282 58.4833 30.9466
700 1.69729 60.1724 32.6989
701 68.6921 58.4519 34.4396
702 1.61904 60.2338 36.0865
703 68.7624 58.5057 37.7766
704 1.62627 60.206 39.6005
705 68.7886 58.5037 41.3745
706 1.72453 60.1807 42.9708
707 68.7815 58.5068 44.7368
708 1.61337 60.2744 46.3811
709 68.7617 58.5125 48.127
710 1.68141 60.2108 49.9042
711 68.7599 58.4505 51.5372
712 1.63909 60.2223 53.318
713 68.7566 58.5014 55.0256
714 1.69138 60.279 56.7088
715 68.7779 58.5456 58.4611
716 1.68785 60.2194 60.27
717 68.6914 58.4096 61.9404
718 1.67222 60.1681 63.6511
719 68.6969 58.4739 65.339
720 1.68824 60.1705 67.0411
721 68.7568 61.949 68.7816
722 1.72716 63.6307 1.79123
723 68.7461 62.0036 3.49357
724 1.71477 63.6467 5.17535
725 68.6913 61.9893 6.90193
726 1.71641 63.6102 8.6328
727 0.0245932 61.9387 10.3017
728 1.84125 63.6145 11.9524
729 0.0200438 61.9572 13.6975
730 1.80458 63.5974 15.481
731 68.779 61.902 17.2021
732 1.76121 63.6247 18.9161
733 0.02577 61.886 20.6404
734 1.71208 63.59 22.3156
735 0.0578078 62.0104 24.0838
736 1.74685 63.599 25.763
737 0.0462373 61.9079 27.5004
738 1.73192 63.5913 29.2187
739 0.00112243 61.7946 30.9544
740 1.72021 63.5701 32.6495
741 68.674 61.9584 34.3839
742 1.6839 63.6224 36.1813
743 68.7696 61.9103 37.8664
744 1.70601 63.632 39.5682
745 0.0134663 61.8684 41.3069
746 1.71653 63.5779 42.9936
747 68.7448 61.8933 44.7063
748 1.66882 63.6043 46.4661
749 68.7825 61.8612 48.1859
750 1.73786 63.6873 49.8618
751 68.7861 61.89 51.5384
752 1.79238 63.5893 53.3708
753 68.7245 61.9389 55.0807
754 1.74765 63.6762 56.6902
755 68.7739 61.9639 58.4852
756 1.76937 63.6847 60.1847
757 0.0669461 62.0188 61.911
758 1.84925 63.7051 63.626
759 68.7861 61.9172 65.3611
760 1.73238 63.694 67.0866
761 0.0399467 65.3359 68.7971
762 1.70076 67.0881 1.75754
763 68.7086 65.3095 3.43756
764 1.70635 67.0607 5.14492
765 68.7588 65.3462 6.9558
766 1.73261 67.0689 8.60393
767 0.0317527 65.3806 10.254
768 1.7597 66.9966 11.9976
769 68.7906 65.3366 13.7596
770 1.76256 67.0214 15.5444
771 68.7757 65.318 17.2107
772 1.73327 67.048 18.8964
773 68.7889 65.3209 20.6548
774 1.80713 67.0665 22.3
775 0.0241038 65.3715 24.0732
776 1.74598 67.0878 25.7637
777 0.0389681 65.2473 27.4995
778 1.62151 67.1265 29.2288
779 68.7891 65.3637 30.9647
780 1.73208 67.1298 32.663
781 68.7977 65.324 34.402
782 1.80525 67.0387 36.1197
783 0.0167233 65.2944 37.7642
784 1.74194 67.0346 39.5981
785 68.7615 65.2775 41.3169
786 1.71362 67.0843 42.892
787 0.0295317 65.2745 44.6899
788 1.7134 67.1221 46.4902
789 68.7683 65.332 48.1066
790 1.6577 67.1314 49.9127
791 0.0013108 65.2886 51.6664
792 1.70402 67.0895 53.3817
793 68.772 65.3254 55.0527
794 1.70716 67.0536 56.701
795 0.0218695 65.3472 58.4728
796 1.82109 67.1387 60.2302
797 0.0985978 65.3615 61.9494
798 1.82539 67.147 63.6761
799 0.0597972 65.3585 65.3086
800 1.76233 67.1056 67.0317
801 3.55195 0.0364288 68.7896
802 5.21482 1.76034 1.72417
803 3.45211 0.0640841 3.40127
804 5.16969 1.76195 5.1797
805 3.42432 68.7727 6.8759
806 5.14151 1.78015 8.55049
807 3.46993 68.7622 10.2822
808 5.11485 1.73997 11.9276
809 3.38205 0.00964769 13.7468
810 5.1532 1.69639 15.5205
811 3.4138 0.0687081 17.2459
812 5.15805 1.74006 18.9888
813 3.46129 0.0354643 20.6692
814 5.14432 1.6688 22.348
815 3.51744 68.7456 23.9879
816 5.11538 1.69413 25.7631
817 3.44054 68.7799 27.502
818 5.2189 1.68589 29.2341
819 3.41028 68.7657 30.9112
820 5.15884 1.70706 32.6627
821 3.48814 0.00577613 34.4473
822 5.16177 1.68273 36.1298
823 3.48861 68.7978 37.8366
824 5.11869 1.68939 39.5786
825 3.47544 0.0572801 41.2246
826 5.12063 1.67268 42.8614
827 3.46166 0.00945465 44.7207
828 5.10531 1.69906 46.4866
829 3.44442 68.7887 48.2411
830 5.13547 1.69067 49.9422
831 3.53787 68.7372 51.6291
832 5.21404 1.69269 53.3295
833 3.46891 68.7808 55.0411
834 5.17516 1.67533 56.7969
835 3.43632 68.738 58.362
836 5.07679 1.66372 60.2142
837 3.45089 68.799 62.163
838 5.15331 1.71162 63.7576
839 3.46794 0.0698101 65.3916
840 5.19002 1.69593 67.0398
841 3.58884 3.42085 68.7878
842 5.27147 5.11108 1.73205
843 3.48549 3.45341 3.45037
844 5.20275 5.08216 5.23797
845 3.43823 3.40962 6.88554
846 5.11495 5.05998 8.5564
847 3.43392 3.43048 10.2487
848 5.11052 5.17412 11.9493
849 3.40124 3.43422 13.7809
850 5.0576 5.18666 15.4718
851 3.33792 3.46599 17.1797
852 5.15643 5.1687 18.9593
853 3.45042 3.34272 20.6101
854 5.13625 5.13255 22.2892
855 3.50467 3.43111 24.0426
856 5.09704 5.10063 25.8162
857 3.43143 3.40682 27.5501
858 5.12556 5.04166 29.2108
859 3.47812 3.47433 30.9606
860 5.14415 5.13967 32.7118
861 3.39838 3.48922 34.3569
862 5.10537 5.13797 36.1171
863 3.41806 3.39007 37.9189
864 5.13209 5.11273 39.5538
865 3.39385 3.43502 41.2309
866 5.15515 5.15658 43.0252
867 3.44642 3.33582 44.6779
868 5.1493 5.19001 46.4485
869 3.46236 3.3933 48.2063
870 5.20321 5.16523 49.8719
871 3.51219 3.38066 51.6179
872 5.19618 5.16007 53.2332
873 3.4918 3.46498 55.0745
874 5.1298 5.18398 56.8575
875 3.42243 3.42148 58.4853
876 5.1495 5.08138 60.2732
877 3.40719 3.38143 62.0348
878 5.17723 5.10072 63.6848
879 3.44675 3.35085 65.337
880 5.19217 5.11062 67.0251
881 3.46279 6.81727 68.7963
882 5.15551 8.63278 1.74139
883 3.46854 6.91082 3.51788
884 5.11072 8.61973 5.19844
885 3.44387 6.84748 6.92018
886 5.16087 8.59994 8.59425
887 3.4069 6.84392 10.2093
888 5.11106 8.55808 12.0103
889 3.39288 6.93425 13.8218
890 5.20377 8.65668 15.4675
891 3.42549 6.90877 17.1439
892 5.20283 8.62422 18.9123
893 3.40608 6.93887 20.5237
894 5.22394 8.68979 22.276
895 3.51508 6.87706 24.159
896 5.12844 8.71551 25.8388
897 3.44511 6.81816 27.5296
898 5.13981 8.62655 29.2553
899 3.38825 6.86627 31.0195
900 5.11345 8.62686 32.7067
901 3.26086 6.87272 34.3722
902 5.07373 8.59709 36.0459
903 3.34926 6.85341 37.7706
904 5.09064 8.64837 39.5525
905 3.4212 6.83626 41.2357
906 5.12486 8.64559 43.0031
907 3.44001 6.92491 44.7173
908 5.15304 8.58366 46.4538
909 3.38843 6.88643 48.114
910 5.09656 8.61905 49.9025
911 3.37474 6.87406 51.6731
912 5.16294 8.60329 53.3051
913 3.46602 6.8328 55.0299
914 5.16334 8.59468 56.8108
915 3.37749 6.81639 58.5299
916 5.18347 8.48139 60.2786
917 3.46681 6.82915 61.9258
918 5.18644 8.55714 63.6577
919 3.39806 6.83499 65.3342
920 5.1473 8.56242 67.1046
921 3.36275 10.3171 0.0132368
922 5.15738 11.9866 1.73531
923 3.36909 10.2803 3.48752
924 5.19005 11.9703 5.18798
925 3.49417 10.2345 6.8923
926 5.22209 12.0417 8.58648
927 3.43095 10.2849 10.3243
928 5.13955 12.0218 12.0493
929 3.43655 10.2854 13.7466
930 5.22044 12.0128 15.4504
931 3.41159 10.2196 17.1489
932 5.15303 12.0491 18.8938
933 3.40097 10.3166 20.6145
934 5.18092 12.0871 22.3082
935 3.45738 10.3884 24.0551
936 5.16784 12.1054 25.8052
937 3.38272 10.4866 27.5922
938 5.15722 12.187 29.3449
939 3.39812 10.3578 30.9741
940 5.15509 12.1776 32.6612
941 3.30011 10.3731 34.4414
942 5.11665 12.0904 36.0241
943 3.38859 10.3797 37.7837
944 5.17742 12.0906 39.5777
945 3.48 10.3247 41.219
946 5.16277 12.1174 42.9365
947 3.46224 10.3528 44.7325
948 5.16331 12.191 46.6055
949 3.41674 10.3698 48.1934
950 5.17775 12.0599 49.8754
951 3.45513 10.3729 51.6889
952 5.09207 12.0853 53.2745
953 3.46187 10.2841 55.0003
954 5.15354 12.0551 56.7254
955 3.43729 10.3472 58.5682
956 5.08096 12.0977 60.3642
957 3.50906 10.2421 61.9414
958 5.11583 12.0367 63.6739
959 3.40741 10.2851 65.3332
960 5.13082 11.986 67.0481
961 3.40647 13.7204 68.7961
962 5.127 15.4994 1.66434
963 3.44558 13.7114 3.45438
964 5.15329 15.4439 5.25216
965 3.4234 13.7539 6.96825
966 5.14134 15.5076 8.67377
967 3.41011 13.7119 10.317
968 5.14198 15.5012 12.016
969 3.42493 13.7703 13.7702
970 5.12283 15.4739 15.4758
971 3.56172 13.6632 17.081
972 5.10239 15.4174 18.8766
973 3.46949 13.7382 20.6709
974 5.16424 15.4628 22.3678
975 3.38699 13.7515 24.0715
976 5.18281 15.449 25.7835
977 3.39089 13.8437 27.5883
978 5.16341 15.5019 29.2973
979 3.44937 13.835 30.9517
980 5.14273 15.45 32.6644
981 3.49372 13.796 34.4012
982 5.04856 15.5723 36.1229
983 3.44978 13.7623 37.8481
984 5.1875 15.5799 39.5304
985 3.44185 13.8373 41.2019
986 5.22883 15.5207 42.9363
987 3.49333 13.8363 44.7687
988 5.18491 15.5156 46.5285
989 3.44246 13.8591 48.1993
990 5.15732 15.4671 49.8183
991 3.47079 13.7913 51.5553
992 5.10609 15.3764 53.2841
993 3.46453 13.7813 55.0051
994 5.07839 15.4416 56.6795
995 3.50687 13.8252 58.5144
996 5.10515 15.4872 60.2455
997 3.41764 13.844 61.9296
998 5.13344 15.466 63.7338
999 3.3455 13.7746 65.3271
1000 5.11402 15.47 67.0972
1001 3.33552 17.326 0.00548811
1002 5.18625 18.9585 1.67366
1003 3.47349 17.2449 3.46629
1004 5.05696 18.9607 5.25433
1005 3.31321 17.2169 6.89886
1006 5.09603 18.834 8.65188
1007 3.29936 17.1757 10.2972
1008 5.10656 18.8627 11.996
1009 3.46111 17.1545 13.7312
1010 5.13429 18.8636 15.466
1011 3.45999 17.2297 17.1992
1012 5.22536 18.8725 18.8844
1013 3.45926 17.1849 20.524
1014 5.17261 18.8912 22.3652
1015 3.4324 17.1635 24.1917
1016 5.17424 18.8947 25.8593
1017 3.43597 17.1453 27.5653
1018 5.14857 18.9153 29.2403
1019 3.45278 17.1742 30.9889
1020 5.12533 18.8757 32.6605
1021 3.47711 17.2093 34.395
1022 5.10133 18.8856 36.1471
1023 3.46725 17.2434 37.8725
1024 5.12909 18.8775 39.5693
1025 3.43531 17.2273 41.2258
1026 5.20553 18.8863 43.0093
1027 3.51302 17.1887 44.7366
1028 5.15157 18.8979 46.4189
1029 3.45885 17.1064 48.1795
1030 5.09392 18.8765 49.8636
1031 3.50383 17.1701 51.5678
1032 5.06694 18.9895 53.2129
1033 3.51772 17.1703 54.9974
1034 5.13532 18.914 56.7428
1035 3.43988 17.1771 58.396
1036 5.11409 18.9289 60.1973
1037 3.39494 17.1302 61.9648
1038 5.14428 18.817 63.7121
1039 3.43132 17.1896 65.3805
1040 5.18056 18.8205 67.0562
1041 3.44104 20.6367 68.7493
1042 5.12337 22.3747 1.73464
1043 3.42104 20.5822 3.46752
1044 5.03767 22.3137 5.24077
1045 3.38088 20.6345 6.95121
1046 5.06538 22.3796 8.56338
1047 3.36187 20.6297 10.2106
1048 5.09302 22.343 12.0386
1049 3.42117 20.6187 13.75
1050 5.16729 22.3672 15.4339
1051 3.45177 20.5984 17.1862
1052 5.19924 22.3508 18.9724
1053 3.43609 20.5679 20.6124
1054 5.1678 22.3454 22.3914
1055 3.47296 20.6148 24.1028
1056 5.21965 22.3941 25.728
1057 3.47232 20.5814 27.5263
1058 5.11872 22.3257 29.2704