(written by ASE)

16000 atoms
5 atom types

0.0      68.799999999999997  xlo xhi
0.0      68.799999999999997  ylo yhi
0.0      68.799999999999997  zlo zhi

Atoms # atomic

     1   5                       0                       0                       0
     2   5                    1.72                    1.72                    1.72
     3   3                       0                       0      3.4399999999999999
     4   4                    1.72                    1.72      5.1600000000000001
     5   1                       0                       0      6.8799999999999999
     6   5                    1.72                    1.72      8.5999999999999996
     7   4                       0                       0                   10.32
     8   5                    1.72                    1.72      12.040000000000001
     9   5                       0                       0                   13.76
    10   4                    1.72                    1.72                   15.48
    11   2                       0                       0      17.199999999999999
    12   3                    1.72                    1.72      18.919999999999998
    13   2                       0                       0      20.640000000000001
    14   5                    1.72                    1.72      22.359999999999999
    15   1                       0                       0      24.079999999999998
    16   5                    1.72                    1.72      25.799999999999997
    17   4                       0                       0                   27.52
    18   3                    1.72                    1.72      29.239999999999998
    19   4                       0                       0      30.960000000000001
    20   5                    1.72                    1.72                   32.68
    21   1                       0                       0      34.399999999999999
    22   5                    1.72                    1.72      36.119999999999997
    23   1                       0                       0      37.839999999999996
    24   3                    1.72                    1.72      39.559999999999995
    25   2                       0                       0      41.280000000000001
    26   3                    1.72                    1.72                      43
    27   3                       0                       0      44.719999999999999
    28   1                    1.72                    1.72      46.439999999999998
    29   4                       0                       0      48.159999999999997
    30   5                    1.72                    1.72      49.879999999999995
    31   4                       0                       0      51.600000000000001
    32   1                    1.72                    1.72                   53.32
    33   3                       0                       0      55.039999999999999
    34   2                    1.72                    1.72      56.759999999999998
    35   2                       0                       0      58.479999999999997
    36   1                    1.72                    1.72      60.199999999999996
    37   4                       0                       0      61.920000000000002
    38   3                    1.72                    1.72      63.640000000000001
    39   4                       0                       0      65.359999999999999
    40   5                    1.72                    1.72      67.079999999999998
    41   3                       0      3.4399999999999999                       0
    42   1                    1.72      5.1600000000000001                    1.72
    43   5                       0      3.4399999999999999      3.4399999999999999
    44   2                    1.72      5.1600000000000001      5.1600000000000001
    45   5                       0      3.4399999999999999      6.8799999999999999
    46   4                    1.72      5.1600000000000001      8.5999999999999996
    47   3                       0      3.4399999999999999                   10.32
    48   5                    1.72      5.1600000000000001      12.040000000000001
    49   2                       0      3.4399999999999999                   13.76
    50   3                    1.72      5.1600000000000001                   15.48
    51   4                       0      3.4399999999999999      17.199999999999999
    52   3                    1.72      5.1600000000000001      18.919999999999998
    53   1                       0      3.4399999999999999      20.640000000000001
    54   5                    1.72      5.1600000000000001      22.359999999999999
    55   1                       0      3.4399999999999999      24.079999999999998
    56   3                    1.72      5.1600000000000001      25.799999999999997
    57   1                       0      3.4399999999999999                   27.52
    58   5                    1.72      5.1600000000000001      29.239999999999998
    59   3                       0      3.4399999999999999      30.960000000000001
    60   4                    1.72      5.1600000000000001                   32.68
    61   1                       0      3.4399999999999999      34.399999999999999
    62   4                    1.72      5.1600000000000001      36.119999999999997
    63   2                       0      3.4399999999999999      37.839999999999996
    64   3                    1.72      5.1600000000000001      39.559999999999995
    65   3                       0      3.4399999999999999      41.280000000000001
    66   2                    1.72      5.1600000000000001                      43
    67   2                       0      3.4399999999999999      44.719999999999999
    68   5                    1.72      5.1600000000000001      46.439999999999998
    69   2                       0      3.4399999999999999      48.159999999999997
    70   3                    1.72      5.1600000000000001      49.879999999999995
    71   5                       0      3.4399999999999999      51.600000000000001
    72   3                    1.72      5.1600000000000001                   53.32
    73   4                       0      3.4399999999999999      55.039999999999999
    74   3                    1.72      5.1600000000000001      56.759999999999998
    75   5                       0      3.4399999999999999      58.479999999999997
    76   3                    1.72      5.1600000000000001      60.199999999999996
    77   2                       0      3.4399999999999999      61.920000000000002
    78   3                    1.72      5.1600000000000001      63.640000000000001
    79   5                       0      3.4399999999999999      65.359999999999999
    80   2                    1.72      5.1600000000000001      67.079999999999998
    81   3                       0      6.8799999999999999                       0
    82   1                    1.72      8.5999999999999996                    1.72
    83   3                       0      6.8799999999999999      3.4399999999999999
    84   1                    1.72      8.5999999999999996      5.1600000000000001
    85   4                       0      6.8799999999999999      6.8799999999999999
    86   2                    1.72      8.5999999999999996      8.5999999999999996
    87   1                       0      6.8799999999999999                   10.32
    88   3                    1.72      8.5999999999999996      12.040000000000001
    89   4                       0      6.8799999999999999                   13.76
    90   2                    1.72      8.5999999999999996                   15.48
    91   3                       0      6.8799999999999999      17.199999999999999
    92   4                    1.72      8.5999999999999996      18.919999999999998
    93   1                       0      6.8799999999999999      20.640000000000001
    94   5                    1.72      8.5999999999999996      22.359999999999999
    95   2                       0      6.8799999999999999      24.079999999999998
    96   1                    1.72      8.5999999999999996      25.799999999999997
    97   2                       0      6.8799999999999999                   27.52
    98   1                    1.72      8.5999999999999996      29.239999999999998
    99   3                       0      6.8799999999999999      30.960000000000001
   100   4                    1.72      8.5999999999999996                   32.68
   101   2                       0      6.8799999999999999      34.399999999999999
   102   3                    1.72      8.5999999999999996      36.119999999999997
   103   2                       0      6.8799999999999999      37.839999999999996
   104   5                    1.72      8.5999999999999996      39.559999999999995
   105   4                       0      6.8799999999999999      41.280000000000001
   106   1                    1.72      8.5999999999999996                      43
   107   3                       0      6.8799999999999999      44.719999999999999
   108   4                    1.72      8.5999999999999996      46.439999999999998
   109   3                       0      6.8799999999999999      48.159999999999997
   110   1                    1.72      8.5999999999999996      49.879999999999995
   111   1                       0      6.8799999999999999      51.600000000000001
   112   2                    1.72      8.5999999999999996                   53.32
   113   4                       0      6.8799999999999999      55.039999999999999
   114   1                    1.72      8.5999999999999996      56.759999999999998
   115   3                       0      6.8799999999999999      58.479999999999997
   116   5                    1.72      8.5999999999999996      60.199999999999996
   117   2                       0      6.8799999999999999      61.920000000000002
   118   1                    1.72      8.5999999999999996      63.640000000000001
   119   4                       0      6.8799999999999999      65.359999999999999
   120   1                    1.72      8.5999999999999996      67.079999999999998
   121   2                       0                   10.32                       0
   122   5                    1.72      12.040000000000001                    1.72
   123   2                       0                   10.32      3.4399999999999999
   124   1                    1.72      12.040000000000001      5.1600000000000001
   125   2                       0                   10.32      6.8799999999999999
   126   4                    1.72      12.040000000000001      8.5999999999999996
   127   5                       0                   10.32                   10.32
   128   1                    1.72      12.040000000000001      12.040000000000001
   129   2                       0                   10.32                   13.76
   130   1                    1.72      12.040000000000001                   15.48
   131   4                       0                   10.32      17.199999999999999
   132   1                    1.72      12.040000000000001      18.919999999999998
   133   5                       0                   10.32      20.640000000000001
   134   3                    1.72      12.040000000000001      22.359999999999999
   135   5                       0                   10.32      24.079999999999998
   136   5                    1.72      12.040000000000001      25.799999999999997
   137   5                       0                   10.32                   27.52
   138   4                    1.72      12.040000000000001      29.239999999999998
   139   1                       0                   10.32      30.960000000000001
   140   5                    1.72      12.040000000000001                   32.68
   141   2                       0                   10.32      34.399999999999999
   142   4                    1.72      12.040000000000001      36.119999999999997
   143   4                       0                   10.32      37.839999999999996
   144   2                    1.72      12.040000000000001      39.559999999999995
   145   5                       0                   10.32      41.280000000000001
   146   1                    1.72      12.040000000000001                      43
   147   1                       0                   10.32      44.719999999999999
   148   1                    1.72      12.040000000000001      46.439999999999998
   149   2                       0                   10.32      48.159999999999997
   150   2                    1.72      12.040000000000001      49.879999999999995
   151   3                       0                   10.32      51.600000000000001
   152   4                    1.72      12.040000000000001                   53.32
   153   2                       0                   10.32      55.039999999999999
   154   5                    1.72      12.040000000000001      56.759999999999998
   155   1                       0                   10.32      58.479999999999997
   156   3                    1.72      12.040000000000001      60.199999999999996
   157   4                       0                   10.32      61.920000000000002
   158   1                    1.72      12.040000000000001      63.640000000000001
   159   3                       0                   10.32      65.359999999999999
   160   2                    1.72      12.040000000000001      67.079999999999998
   161   3                       0                   13.76                       0
   162   1                    1.72                   15.48                    1.72
   163   1                       0                   13.76      3.4399999999999999
   164   1                    1.72                   15.48      5.1600000000000001
   165   4                       0                   13.76      6.8799999999999999
   166   4                    1.72                   15.48      8.5999999999999996
   167   3                       0                   13.76                   10.32
   168   2                    1.72                   15.48      12.040000000000001
   169   2                       0                   13.76                   13.76
   170   4                    1.72                   15.48                   15.48
   171   4                       0                   13.76      17.199999999999999
   172   5                    1.72                   15.48      18.919999999999998
   173   5                       0                   13.76      20.640000000000001
   174   1                    1.72                   15.48      22.359999999999999
   175   4                       0                   13.76      24.079999999999998
   176   4                    1.72                   15.48      25.799999999999997
   177   4                       0                   13.76                   27.52
   178   4                    1.72                   15.48      29.239999999999998
   179   3                       0                   13.76      30.960000000000001
   180   5                    1.72                   15.48                   32.68
   181   5                       0                   13.76      34.399999999999999
   182   3                    1.72                   15.48      36.119999999999997
   183   2                       0                   13.76      37.839999999999996
   184   4                    1.72                   15.48      39.559999999999995
   185   2                       0                   13.76      41.280000000000001
   186   2                    1.72                   15.48                      43
   187   1                       0                   13.76      44.719999999999999
   188   4                    1.72                   15.48      46.439999999999998
   189   2                       0                   13.76      48.159999999999997
   190   4                    1.72                   15.48      49.879999999999995
   191   1                       0                   13.76      51.600000000000001
   192   2                    1.72                   15.48                   53.32
   193   5                       0                   13.76      55.039999999999999
   194   1                    1.72                   15.48      56.759999999999998
   195   2                       0                   13.76      58.479999999999997
   196   5                    1.72                   15.48      60.199999999999996
   197   2                       0                   13.76      61.920000000000002
   198   2                    1.72                   15.48      63.640000000000001
   199   3                       0                   13.76      65.359999999999999
   200   5                    1.72                   15.48      67.079999999999998
   201   1                       0      17.199999999999999                       0
   202   3                    1.72      18.919999999999998                    1.72
   203   3                       0      17.199999999999999      3.4399999999999999
   204   3                    1.72      18.919999999999998      5.1600000000000001
   205   5                       0      17.199999999999999      6.8799999999999999
   206   4                    1.72      18.919999999999998      8.5999999999999996
   207   5                       0      17.199999999999999                   10.32
   208   1                    1.72      18.919999999999998      12.040000000000001
   209   5                       0      17.199999999999999                   13.76
   210   5                    1.72      18.919999999999998                   15.48
   211   1                       0      17.199999999999999      17.199999999999999
   212   4                    1.72      18.919999999999998      18.919999999999998
   213   2                       0      17.199999999999999      20.640000000000001
   214   1                    1.72      18.919999999999998      22.359999999999999
   215   5                       0      17.199999999999999      24.079999999999998
   216   3                    1.72      18.919999999999998      25.799999999999997
   217   5                       0      17.199999999999999                   27.52
   218   3                    1.72      18.919999999999998      29.239999999999998
   219   2                       0      17.199999999999999      30.960000000000001
   220   2                    1.72      18.919999999999998                   32.68
   221   5                       0      17.199999999999999      34.399999999999999
   222   2                    1.72      18.919999999999998      36.119999999999997
   223   2                       0      17.199999999999999      37.839999999999996
   224   4                    1.72      18.919999999999998      39.559999999999995
   225   5                       0      17.199999999999999      41.280000000000001
   226   5                    1.72      18.919999999999998                      43
   227   1                       0      17.199999999999999      44.719999999999999
   228   5                    1.72      18.919999999999998      46.439999999999998
   229   4                       0      17.199999999999999      48.159999999999997
   230   2                    1.72      18.919999999999998      49.879999999999995
   231   1                       0      17.199999999999999      51.600000000000001
   232   1                    1.72      18.919999999999998                   53.32
   233   1                       0      17.199999999999999      55.039999999999999
   234   2                    1.72      18.919999999999998      56.759999999999998
   235   3                       0      17.199999999999999      58.479999999999997
   236   4                    1.72      18.919999999999998      60.199999999999996
   237   1                       0      17.199999999999999      61.920000000000002
   238   5                    1.72      18.919999999999998      63.640000000000001
   239   4                       0      17.199999999999999      65.359999999999999
   240   4                    1.72      18.919999999999998      67.079999999999998
   241   2                       0      20.640000000000001                       0
   242   1                    1.72      22.359999999999999                    1.72
   243   4                       0      20.640000000000001      3.4399999999999999
   244   4                    1.72      22.359999999999999      5.1600000000000001
   245   1                       0      20.640000000000001      6.8799999999999999
   246   5                    1.72      22.359999999999999      8.5999999999999996
   247   4                       0      20.640000000000001                   10.32
   248   5                    1.72      22.359999999999999      12.040000000000001
   249   4                       0      20.640000000000001                   13.76
   250   3                    1.72      22.359999999999999                   15.48
   251   2                       0      20.640000000000001      17.199999999999999
   252   1                    1.72      22.359999999999999      18.919999999999998
   253   4                       0      20.640000000000001      20.640000000000001
   254   5                    1.72      22.359999999999999      22.359999999999999
   255   2                       0      20.640000000000001      24.079999999999998
   256   1                    1.72      22.359999999999999      25.799999999999997
   257   2                       0      20.640000000000001                   27.52
   258   2                    1.72      22.359999999999999      29.239999999999998
   259   2                       0      20.640000000000001      30.960000000000001
   260   1                    1.72      22.359999999999999                   32.68
   261   5                       0      20.640000000000001      34.399999999999999
   262   4                    1.72      22.359999999999999      36.119999999999997
   263   1                       0      20.640000000000001      37.839999999999996
   264   3                    1.72      22.359999999999999      39.559999999999995
   265   5                       0      20.640000000000001      41.280000000000001
   266   3                    1.72      22.359999999999999                      43
   267   3                       0      20.640000000000001      44.719999999999999
   268   2                    1.72      22.359999999999999      46.439999999999998
   269   3                       0      20.640000000000001      48.159999999999997
   270   4                    1.72      22.359999999999999      49.879999999999995
   271   2                       0      20.640000000000001      51.600000000000001
   272   1                    1.72      22.359999999999999                   53.32
   273   3                       0      20.640000000000001      55.039999999999999
   274   2                    1.72      22.359999999999999      56.759999999999998
   275   2                       0      20.640000000000001      58.479999999999997
   276   1                    1.72      22.359999999999999      60.199999999999996
   277   2                       0      20.640000000000001      61.920000000000002
   278   2                    1.72      22.359999999999999      63.640000000000001
   279   1                       0      20.640000000000001      65.359999999999999
   280   5                    1.72      22.359999999999999      67.079999999999998
   281   5                       0      24.079999999999998                       0
   282   3                    1.72      25.799999999999997                    1.72
   283   1                       0      24.079999999999998      3.4399999999999999
   284   4                    1.72      25.799999999999997      5.1600000000000001
   285   4                       0      24.079999999999998      6.8799999999999999
   286   4                    1.72      25.799999999999997      8.5999999999999996
   287   3                       0      24.079999999999998                   10.32
   288   3                    1.72      25.799999999999997      12.040000000000001
   289   3                       0      24.079999999999998                   13.76
   290   1                    1.72      25.799999999999997                   15.48
   291   5                       0      24.079999999999998      17.199999999999999
   292   5                    1.72      25.799999999999997      18.919999999999998
   293   1                       0      24.079999999999998      20.640000000000001
   294   2                    1.72      25.799999999999997      22.359999999999999
   295   2                       0      24.079999999999998      24.079999999999998
   296   1                    1.72      25.799999999999997      25.799999999999997
   297   1                       0      24.079999999999998                   27.52
   298   1                    1.72      25.799999999999997      29.239999999999998
   299   5                       0      24.079999999999998      30.960000000000001
   300   3                    1.72      25.799999999999997                   32.68
   301   3                       0      24.079999999999998      34.399999999999999
   302   5                    1.72      25.799999999999997      36.119999999999997
   303   2                       0      24.079999999999998      37.839999999999996
   304   2                    1.72      25.799999999999997      39.559999999999995
   305   4                       0      24.079999999999998      41.280000000000001
   306   3                    1.72      25.799999999999997                      43
   307   1                       0      24.079999999999998      44.719999999999999
   308   1                    1.72      25.799999999999997      46.439999999999998
   309   4                       0      24.079999999999998      48.159999999999997
   310   3                    1.72      25.799999999999997      49.879999999999995
   311   2                       0      24.079999999999998      51.600000000000001
   312   1                    1.72      25.799999999999997                   53.32
   313   5                       0      24.079999999999998      55.039999999999999
   314   3                    1.72      25.799999999999997      56.759999999999998
   315   5                       0      24.079999999999998      58.479999999999997
   316   3                    1.72      25.799999999999997      60.199999999999996
   317   5                       0      24.079999999999998      61.920000000000002
   318   5                    1.72      25.799999999999997      63.640000000000001
   319   3                       0      24.079999999999998      65.359999999999999
   320   5                    1.72      25.799999999999997      67.079999999999998
   321   3                       0                   27.52                       0
   322   4                    1.72      29.239999999999998                    1.72
   323   4                       0                   27.52      3.4399999999999999
   324   3                    1.72      29.239999999999998      5.1600000000000001
   325   2                       0                   27.52      6.8799999999999999
   326   1                    1.72      29.239999999999998      8.5999999999999996
   327   4                       0                   27.52                   10.32
   328   4                    1.72      29.239999999999998      12.040000000000001
   329   4                       0                   27.52                   13.76
   330   4                    1.72      29.239999999999998                   15.48
   331   1                       0                   27.52      17.199999999999999
   332   5                    1.72      29.239999999999998      18.919999999999998
   333   3                       0                   27.52      20.640000000000001
   334   1                    1.72      29.239999999999998      22.359999999999999
   335   3                       0                   27.52      24.079999999999998
   336   5                    1.72      29.239999999999998      25.799999999999997
   337   2                       0                   27.52                   27.52
   338   2                    1.72      29.239999999999998      29.239999999999998
   339   3                       0                   27.52      30.960000000000001
   340   3                    1.72      29.239999999999998                   32.68
   341   1                       0                   27.52      34.399999999999999
   342   2                    1.72      29.239999999999998      36.119999999999997
   343   5                       0                   27.52      37.839999999999996
   344   4                    1.72      29.239999999999998      39.559999999999995
   345   5                       0                   27.52      41.280000000000001
   346   3                    1.72      29.239999999999998                      43
   347   3                       0                   27.52      44.719999999999999
   348   2                    1.72      29.239999999999998      46.439999999999998
   349   1                       0                   27.52      48.159999999999997
   350   1                    1.72      29.239999999999998      49.879999999999995
   351   4                       0                   27.52      51.600000000000001
   352   5                    1.72      29.239999999999998                   53.32
   353   2                       0                   27.52      55.039999999999999
   354   3                    1.72      29.239999999999998      56.759999999999998
   355   4                       0                   27.52      58.479999999999997
   356   5                    1.72      29.239999999999998      60.199999999999996
   357   3                       0                   27.52      61.920000000000002
   358   3                    1.72      29.239999999999998      63.640000000000001
   359   2                       0                   27.52      65.359999999999999