(written by ASE)

16000 atoms
5 atom types

0.0      67.799999999999997  xlo xhi
0.0      67.799999999999997  ylo yhi
0.0      67.799999999999997  zlo zhi

Atoms # atomic

     1   4                       0                       0                       0
     2   5      1.6949999999999998      1.6949999999999998      1.6949999999999998
     3   5                       0                       0      3.3899999999999997
     4   1      1.6949999999999998      1.6949999999999998      5.0849999999999991
     5   5                       0                       0      6.7799999999999994
     6   4      1.6949999999999998      1.6949999999999998      8.4749999999999979
     7   5                       0                       0      10.169999999999998
     8   2      1.6949999999999998      1.6949999999999998      11.864999999999998
     9   2                       0                       0      13.559999999999999
    10   3      1.6949999999999998      1.6949999999999998      15.254999999999999
    11   5                       0                       0      16.949999999999996
    12   3      1.6949999999999998      1.6949999999999998      18.644999999999996
    13   5                       0                       0      20.339999999999996
    14   1      1.6949999999999998      1.6949999999999998      22.034999999999997
    15   1                       0                       0      23.729999999999997
    16   3      1.6949999999999998      1.6949999999999998      25.424999999999997
    17   1                       0                       0      27.119999999999997
    18   3      1.6949999999999998      1.6949999999999998      28.814999999999998
    19   4                       0                       0      30.509999999999998
    20   1      1.6949999999999998      1.6949999999999998      32.204999999999991
    21   4                       0                       0      33.899999999999991
    22   2      1.6949999999999998      1.6949999999999998      35.594999999999992
    23   5                       0                       0      37.289999999999992
    24   5      1.6949999999999998      1.6949999999999998      38.984999999999992
    25   1                       0                       0      40.679999999999993
    26   2      1.6949999999999998      1.6949999999999998      42.374999999999993
    27   4                       0                       0      44.069999999999993
    28   2      1.6949999999999998      1.6949999999999998      45.764999999999993
    29   5                       0                       0      47.459999999999994
    30   3      1.6949999999999998      1.6949999999999998      49.154999999999994
    31   1                       0                       0      50.849999999999994
    32   5      1.6949999999999998      1.6949999999999998      52.544999999999995
    33   3                       0                       0      54.239999999999995
    34   3      1.6949999999999998      1.6949999999999998      55.934999999999995
    35   5                       0                       0      57.629999999999995
    36   1      1.6949999999999998      1.6949999999999998      59.324999999999996
    37   1                       0                       0      61.019999999999996
    38   1      1.6949999999999998      1.6949999999999998      62.714999999999996
    39   5                       0                       0      64.409999999999982
    40   2      1.6949999999999998      1.6949999999999998      66.104999999999976
    41   3                       0      3.3899999999999997                       0
    42   3      1.6949999999999998      5.0849999999999991      1.6949999999999998
    43   4                       0      3.3899999999999997      3.3899999999999997
    44   1      1.6949999999999998      5.0849999999999991      5.0849999999999991
    45   1                       0      3.3899999999999997      6.7799999999999994
    46   4      1.6949999999999998      5.0849999999999991      8.4749999999999979
    47   2                       0      3.3899999999999997      10.169999999999998
    48   4      1.6949999999999998      5.0849999999999991      11.864999999999998
    49   2                       0      3.3899999999999997      13.559999999999999
    50   4      1.6949999999999998      5.0849999999999991      15.254999999999999
    51   5                       0      3.3899999999999997      16.949999999999996
    52   1      1.6949999999999998      5.0849999999999991      18.644999999999996
    53   4                       0      3.3899999999999997      20.339999999999996
    54   1      1.6949999999999998      5.0849999999999991      22.034999999999997
    55   3                       0      3.3899999999999997      23.729999999999997
    56   5      1.6949999999999998      5.0849999999999991      25.424999999999997
    57   1                       0      3.3899999999999997      27.119999999999997
    58   2      1.6949999999999998      5.0849999999999991      28.814999999999998
    59   5                       0      3.3899999999999997      30.509999999999998
    60   4      1.6949999999999998      5.0849999999999991      32.204999999999991
    61   4                       0      3.3899999999999997      33.899999999999991
    62   1      1.6949999999999998      5.0849999999999991      35.594999999999992
    63   5                       0      3.3899999999999997      37.289999999999992
    64   3      1.6949999999999998      5.0849999999999991      38.984999999999992
    65   2                       0      3.3899999999999997      40.679999999999993
    66   5      1.6949999999999998      5.0849999999999991      42.374999999999993
    67   2                       0      3.3899999999999997      44.069999999999993
    68   5      1.6949999999999998      5.0849999999999991      45.764999999999993
    69   4                       0      3.3899999999999997      47.459999999999994
    70   5      1.6949999999999998      5.0849999999999991      49.154999999999994
    71   3                       0      3.3899999999999997      50.849999999999994
    72   4      1.6949999999999998      5.0849999999999991      52.544999999999995
    73   2                       0      3.3899999999999997      54.239999999999995
    74   1      1.6949999999999998      5.0849999999999991      55.934999999999995
    75   1                       0      3.3899999999999997      57.629999999999995
    76   3      1.6949999999999998      5.0849999999999991      59.324999999999996
    77   5                       0      3.3899999999999997      61.019999999999996
    78   2      1.6949999999999998      5.0849999999999991      62.714999999999996
    79   5                       0      3.3899999999999997      64.409999999999982
    80   3      1.6949999999999998      5.0849999999999991      66.104999999999976
    81   5                       0      6.7799999999999994                       0
    82   1      1.6949999999999998      8.4749999999999979      1.6949999999999998
    83   1                       0      6.7799999999999994      3.3899999999999997
    84   4      1.6949999999999998      8.4749999999999979      5.0849999999999991
    85   4                       0      6.7799999999999994      6.7799999999999994
    86   3      1.6949999999999998      8.4749999999999979      8.4749999999999979
    87   5                       0      6.7799999999999994      10.169999999999998
    88   2      1.6949999999999998      8.4749999999999979      11.864999999999998
    89   4                       0      6.7799999999999994      13.559999999999999
    90   3      1.6949999999999998      8.4749999999999979      15.254999999999999
    91   5                       0      6.7799999999999994      16.949999999999996
    92   5      1.6949999999999998      8.4749999999999979      18.644999999999996
    93   2                       0      6.7799999999999994      20.339999999999996
    94   4      1.6949999999999998      8.4749999999999979      22.034999999999997
    95   3                       0      6.7799999999999994      23.729999999999997
    96   4      1.6949999999999998      8.4749999999999979      25.424999999999997
    97   1                       0      6.7799999999999994      27.119999999999997
    98   2      1.6949999999999998      8.4749999999999979      28.814999999999998
    99   4                       0      6.7799999999999994      30.509999999999998
   100   1      1.6949999999999998      8.4749999999999979      32.204999999999991
   101   4                       0      6.7799999999999994      33.899999999999991
   102   3      1.6949999999999998      8.4749999999999979      35.594999999999992
   103   2                       0      6.7799999999999994      37.289999999999992
   104   4      1.6949999999999998      8.4749999999999979      38.984999999999992
   105   2                       0      6.7799999999999994      40.679999999999993
   106   4      1.6949999999999998      8.4749999999999979      42.374999999999993
   107   2                       0      6.7799999999999994      44.069999999999993
   108   1      1.6949999999999998      8.4749999999999979      45.764999999999993
   109   1                       0      6.7799999999999994      47.459999999999994
   110   5      1.6949999999999998      8.4749999999999979      49.154999999999994
   111   1                       0      6.7799999999999994      50.849999999999994
   112   5      1.6949999999999998      8.4749999999999979      52.544999999999995
   113   4                       0      6.7799999999999994      54.239999999999995
   114   2      1.6949999999999998      8.4749999999999979      55.934999999999995
   115   5                       0      6.7799999999999994      57.629999999999995
   116   5      1.6949999999999998      8.4749999999999979      59.324999999999996
   117   4                       0      6.7799999999999994      61.019999999999996
   118   4      1.6949999999999998      8.4749999999999979      62.714999999999996
   119   4                       0      6.7799999999999994      64.409999999999982
   120   4      1.6949999999999998      8.4749999999999979      66.104999999999976
   121   1                       0      10.169999999999998                       0
   122   1      1.6949999999999998      11.864999999999998      1.6949999999999998
   123   5                       0      10.169999999999998      3.3899999999999997
   124   4      1.6949999999999998      11.864999999999998      5.0849999999999991
   125   3                       0      10.169999999999998      6.7799999999999994
   126   5      1.6949999999999998      11.864999999999998      8.4749999999999979
   127   1                       0      10.169999999999998      10.169999999999998
   128   1      1.6949999999999998      11.864999999999998      11.864999999999998
   129   3                       0      10.169999999999998      13.559999999999999
   130   4      1.6949999999999998      11.864999999999998      15.254999999999999
   131   5                       0      10.169999999999998      16.949999999999996
   132   5      1.6949999999999998      11.864999999999998      18.644999999999996
   133   4                       0      10.169999999999998      20.339999999999996
   134   5      1.6949999999999998      11.864999999999998      22.034999999999997
   135   3                       0      10.169999999999998      23.729999999999997
   136   1      1.6949999999999998      11.864999999999998      25.424999999999997
   137   1                       0      10.169999999999998      27.119999999999997
   138   3      1.6949999999999998      11.864999999999998      28.814999999999998
   139   4                       0      10.169999999999998      30.509999999999998
   140   2      1.6949999999999998      11.864999999999998      32.204999999999991
   141   3                       0      10.169999999999998      33.899999999999991
   142   1      1.6949999999999998      11.864999999999998      35.594999999999992
   143   5                       0      10.169999999999998      37.289999999999992
   144   1      1.6949999999999998      11.864999999999998      38.984999999999992
   145   2                       0      10.169999999999998      40.679999999999993
   146   2      1.6949999999999998      11.864999999999998      42.374999999999993
   147   1                       0      10.169999999999998      44.069999999999993
   148   1      1.6949999999999998      11.864999999999998      45.764999999999993
   149   2                       0      10.169999999999998      47.459999999999994
   150   2      1.6949999999999998      11.864999999999998      49.154999999999994
   151   4                       0      10.169999999999998      50.849999999999994
   152   1      1.6949999999999998      11.864999999999998      52.544999999999995
   153   4                       0      10.169999999999998      54.239999999999995
   154   3      1.6949999999999998      11.864999999999998      55.934999999999995
   155   3                       0      10.169999999999998      57.629999999999995
   156   2      1.6949999999999998      11.864999999999998      59.324999999999996
   157   5                       0      10.169999999999998      61.019999999999996
   158   2      1.6949999999999998      11.864999999999998      62.714999999999996
   159   3                       0      10.169999999999998      64.409999999999982
   160   5      1.6949999999999998      11.864999999999998      66.104999999999976
   161   2                       0      13.559999999999999                       0
   162   1      1.6949999999999998      15.254999999999999      1.6949999999999998
   163   5                       0      13.559999999999999      3.3899999999999997
   164   1      1.6949999999999998      15.254999999999999      5.0849999999999991
   165   1                       0      13.559999999999999      6.7799999999999994
   166   3      1.6949999999999998      15.254999999999999      8.4749999999999979
   167   2                       0      13.559999999999999      10.169999999999998
   168   2      1.6949999999999998      15.254999999999999      11.864999999999998
   169   4                       0      13.559999999999999      13.559999999999999
   170   5      1.6949999999999998      15.254999999999999      15.254999999999999
   171   3                       0      13.559999999999999      16.949999999999996
   172   1      1.6949999999999998      15.254999999999999      18.644999999999996
   173   4                       0      13.559999999999999      20.339999999999996
   174   1      1.6949999999999998      15.254999999999999      22.034999999999997
   175   5                       0      13.559999999999999      23.729999999999997
   176   3      1.6949999999999998      15.254999999999999      25.424999999999997
   177   5                       0      13.559999999999999      27.119999999999997
   178   4      1.6949999999999998      15.254999999999999      28.814999999999998
   179   4                       0      13.559999999999999      30.509999999999998
   180   4      1.6949999999999998      15.254999999999999      32.204999999999991
   181   2                       0      13.559999999999999      33.899999999999991
   182   5      1.6949999999999998      15.254999999999999      35.594999999999992
   183   4                       0      13.559999999999999      37.289999999999992
   184   2      1.6949999999999998      15.254999999999999      38.984999999999992
   185   2                       0      13.559999999999999      40.679999999999993
   186   3      1.6949999999999998      15.254999999999999      42.374999999999993
   187   5                       0      13.559999999999999      44.069999999999993
   188   5      1.6949999999999998      15.254999999999999      45.764999999999993
   189   2                       0      13.559999999999999      47.459999999999994
   190   1      1.6949999999999998      15.254999999999999      49.154999999999994
   191   4                       0      13.559999999999999      50.849999999999994
   192   2      1.6949999999999998      15.254999999999999      52.544999999999995
   193   2                       0      13.559999999999999      54.239999999999995
   194   1      1.6949999999999998      15.254999999999999      55.934999999999995
   195   1                       0      13.559999999999999      57.629999999999995
   196   4      1.6949999999999998      15.254999999999999      59.324999999999996
   197   1                       0      13.559999999999999      61.019999999999996
   198   4      1.6949999999999998      15.254999999999999      62.714999999999996
   199   2                       0      13.559999999999999      64.409999999999982
   200   3      1.6949999999999998      15.254999999999999      66.104999999999976
   201   1                       0      16.949999999999996                       0
   202   3      1.6949999999999998      18.644999999999996      1.6949999999999998
   203   3                       0      16.949999999999996      3.3899999999999997
   204   2      1.6949999999999998      18.644999999999996      5.0849999999999991
   205   3                       0      16.949999999999996      6.7799999999999994
   206   5      1.6949999999999998      18.644999999999996      8.4749999999999979
   207   4                       0      16.949999999999996      10.169999999999998
   208   1      1.6949999999999998      18.644999999999996      11.864999999999998
   209   1                       0      16.949999999999996      13.559999999999999
   210   5      1.6949999999999998      18.644999999999996      15.254999999999999
   211   3                       0      16.949999999999996      16.949999999999996
   212   4      1.6949999999999998      18.644999999999996      18.644999999999996
   213   4                       0      16.949999999999996      20.339999999999996
   214   4      1.6949999999999998      18.644999999999996      22.034999999999997
   215   1                       0      16.949999999999996      23.729999999999997
   216   2      1.6949999999999998      18.644999999999996      25.424999999999997
   217   2                       0      16.949999999999996      27.119999999999997
   218   3      1.6949999999999998      18.644999999999996      28.814999999999998
   219   3                       0      16.949999999999996      30.509999999999998
   220   1      1.6949999999999998      18.644999999999996      32.204999999999991
   221   3                       0      16.949999999999996      33.899999999999991
   222   2      1.6949999999999998      18.644999999999996      35.594999999999992
   223   5                       0      16.949999999999996      37.289999999999992
   224   4      1.6949999999999998      18.644999999999996      38.984999999999992
   225   5                       0      16.949999999999996      40.679999999999993
   226   3      1.6949999999999998      18.644999999999996      42.374999999999993
   227   3                       0      16.949999999999996      44.069999999999993
   228   3      1.6949999999999998      18.644999999999996      45.764999999999993
   229   1                       0      16.949999999999996      47.459999999999994
   230   5      1.6949999999999998      18.644999999999996      49.154999999999994
   231   1                       0      16.949999999999996      50.849999999999994
   232   4      1.6949999999999998      18.644999999999996      52.544999999999995
   233   1                       0      16.949999999999996      54.239999999999995
   234   5      1.6949999999999998      18.644999999999996      55.934999999999995
   235   3                       0      16.949999999999996      57.629999999999995
   236   3      1.6949999999999998      18.644999999999996      59.324999999999996
   237   5                       0      16.949999999999996      61.019999999999996
   238   1      1.6949999999999998      18.644999999999996      62.714999999999996
   239   5                       0      16.949999999999996      64.409999999999982
   240   2      1.6949999999999998      18.644999999999996      66.104999999999976
   241   4                       0      20.339999999999996                       0
   242   3      1.6949999999999998      22.034999999999997      1.6949999999999998
   243   5                       0      20.339999999999996      3.3899999999999997
   244   2      1.6949999999999998      22.034999999999997      5.0849999999999991
   245   3                       0      20.339999999999996      6.7799999999999994
   246   1      1.6949999999999998      22.034999999999997      8.4749999999999979
   247   5                       0      20.339999999999996      10.169999999999998
   248   5      1.6949999999999998      22.034999999999997      11.864999999999998
   249   3                       0      20.339999999999996      13.559999999999999
   250   1      1.6949999999999998      22.034999999999997      15.254999999999999
   251   2                       0      20.339999999999996      16.949999999999996
   252   2      1.6949999999999998      22.034999999999997      18.644999999999996
   253   4                       0      20.339999999999996      20.339999999999996
   254   3      1.6949999999999998      22.034999999999997      22.034999999999997
   255   4                       0      20.339999999999996      23.729999999999997
   256   2      1.6949999999999998      22.034999999999997      25.424999999999997
   257   1                       0      20.339999999999996      27.119999999999997
   258   5      1.6949999999999998      22.034999999999997      28.814999999999998
   259   1                       0      20.339999999999996      30.509999999999998
   260   5      1.6949999999999998      22.034999999999997      32.204999999999991
   261   4                       0      20.339999999999996      33.899999999999991
   262   1      1.6949999999999998      22.034999999999997      35.594999999999992
   263   2                       0      20.339999999999996      37.289999999999992
   264   2      1.6949999999999998      22.034999999999997      38.984999999999992
   265   2                       0      20.339999999999996      40.679999999999993
   266   2      1.6949999999999998      22.034999999999997      42.374999999999993
   267   3                       0      20.339999999999996      44.069999999999993
   268   5      1.6949999999999998      22.034999999999997      45.764999999999993
   269   1                       0      20.339999999999996      47.459999999999994
   270   1      1.6949999999999998      22.034999999999997      49.154999999999994
   271   2                       0      20.339999999999996      50.849999999999994
   272   5      1.6949999999999998      22.034999999999997      52.544999999999995
   273   2                       0      20.339999999999996      54.239999999999995
   274   1      1.6949999999999998      22.034999999999997      55.934999999999995
   275   2                       0      20.339999999999996      57.629999999999995
   276   4      1.6949999999999998      22.034999999999997      59.324999999999996
   277   2                       0      20.339999999999996      61.019999999999996
   278   3      1.6949999999999998      22.034999999999997      62.714999999999996
   279   2                       0      20.339999999999996      64.409999999999982
   280   5      1.6949999999999998      22.034999999999997      66.104999999999976
   281   1                       0      23.729999999999997                       0
   282   4      1.6949999999999998      25.424999999999997      1.6949999999999998
   283   2                       0      23.729999999999997      3.3899999999999997
   284   2      1.6949999999999998      25.424999999999997      5.0849999999999991
   285   2                       0      23.729999999999997      6.7799999999999994
   286   5      1.6949999999999998      25.424999999999997      8.4749999999999979
   287   3                       0      23.729999999999997      10.169999999999998
   288   4      1.6949999999999998      25.424999999999997      11.864999999999998
   289   4                       0      23.729999999999997      13.559999999999999
   290   3      1.6949999999999998      25.424999999999997      15.254999999999999
   291   3                       0      23.729999999999997      16.949999999999996
   292   4      1.6949999999999998      25.424999999999997      18.644999999999996
   293   3                       0      23.729999999999997      20.339999999999996
   294   1      1.6949999999999998      25.424999999999997      22.034999999999997
   295   3                       0      23.729999999999997      23.729999999999997
   296   5      1.6949999999999998      25.424999999999997      25.424999999999997
   297   2                       0      23.729999999999997      27.119999999999997
   298   4      1.6949999999999998      25.424999999999997      28.814999999999998
   299   3                       0      23.729999999999997      30.509999999999998
   300   5      1.6949999999999998      25.424999999999997      32.204999999999991
   301   3                       0      23.729999999999997      33.899999999999991
   302   5      1.6949999999999998      25.424999999999997      35.594999999999992
   303   2                       0      23.729999999999997      37.289999999999992
   304   4      1.6949999999999998      25.424999999999997      38.984999999999992
   305   2                       0      23.729999999999997      40.679999999999993
   306   3      1.6949999999999998      25.424999999999997      42.374999999999993
   307   2                       0      23.729999999999997      44.069999999999993
   308   1      1.6949999999999998      25.424999999999997      45.764999999999993
   309   5                       0      23.729999999999997      47.459999999999994
   310   4      1.6949999999999998      25.424999999999997      49.154999999999994
   311   2                       0      23.729999999999997      50.849999999999994
   312   4      1.6949999999999998      25.424999999999997      52.544999999999995
   313   1                       0      23.729999999999997      54.239999999999995
   314   2      1.6949999999999998      25.424999999999997      55.934999999999995
   315   4                       0      23.729999999999997      57.629999999999995
   316   2      1.6949999999999998      25.424999999999997      59.324999999999996
   317   2                       0      23.729999999999997      61.019999999999996
   318   5      1.6949999999999998      25.424999999999997      62.714999999999996
   319   1                       0      23.729999999999997      64.409999999999982
   320   3      1.6949999999999998      25.424999999999997      66.104999999999976
   321   3                       0      27.119999999999997                       0
   322   3      1.6949999999999998      28.814999999999998      1.6949999999999998
   323   4                       0      27.119999999999997      3.3899999999999997
   324   5      1.6949999999999998      28.814999999999998      5.0849999999999991
   325   3                       0      27.119999999999997      6.7799999999999994
   326   4      1.6949999999999998      28.814999999999998      8.4749999999999979
   327   2                       0      27.119999999999997      10.169999999999998
   328   3      1.6949999999999998      28.814999999999998      11.864999999999998
   329   1                       0      27.119999999999997      13.559999999999999
   330   2      1.6949999999999998      28.814999999999998      15.254999999999999
   331   4                       0      27.119999999999997      16.949999999999996
   332   3      1.6949999999999998      28.814999999999998      18.644999999999996
   333   2                       0      27.119999999999997      20.339999999999996
   334   1      1.6949999999999998      28.814999999999998      22.034999999999997
   335   1                       0      27.119999999999997      23.729999999999997
   336   4      1.6949999999999998      28.814999999999998      25.424999999999997
   337   1                       0      27.119999999999997      27.119999999999997
   338   4      1.6949999999999998      28.814999999999998      28.814999999999998
   339   4                       0      27.119999999999997      30.509999999999998
   340   3      1.6949999999999998      28.814999999999998      32.204999999999991
   341   4                       0      27.119999999999997      33.899999999999991
   342   4      1.6949999999999998      28.814999999999998      35.594999999999992
   343   1                       0      27.119999999999997      37.289999999999992
   344   4      1.6949999999999998      28.814999999999998      38.984999999999992
   345   1                       0      27.119999999999997      40.679999999999993
   346   3      1.6949999999999998      28.814999999999998      42.374999999999993
   347   1                       0      27.119999999999997      44.069999999999993
   348   3      1.6949999999999998      28.814999999999998      45.764999999999993
   349   5                       0      27.119999999999997      47.459999999999994
   350   1      1.6949999999999998      28.814999999999998      49.154999999999994
   351   3                       0      27.119999999999997      50.849999999999994
   352   4      1.6949999999999998      28.814999999999998      52.544999999999995
   353   3                       0      27.119999999999997      54.239999999999995
   354   4      1.6949999999999998      28.814999999999998      55.934999999999995
   355   5                       0      27.119999999999997      57.629999999999995
   356   1      1.6949999999999998      28.814999999999998      59.324999999999996
   357   2                       0      27.119999999999997      61.019999999999996
   358   1      1.6949999999999998      28.814999999999998      62.714999999999996
   359   5                       0      27.119999999999997      64.409999999999982