(written by ASE)

16000 atoms
5 atom types

0.0      66.399999999999991  xlo xhi
0.0      66.399999999999991  ylo yhi
0.0      66.399999999999991  zlo zhi

Atoms # atomic

     1   3                       0                       0                       0
     2   4      1.6599999999999999      1.6599999999999999      1.6599999999999999
     3   5                       0                       0      3.3199999999999998
     4   3      1.6599999999999999      1.6599999999999999      4.9799999999999995
     5   1                       0                       0      6.6399999999999997
     6   2      1.6599999999999999      1.6599999999999999      8.2999999999999989
     7   2                       0                       0      9.9599999999999991
     8   5      1.6599999999999999      1.6599999999999999      11.619999999999999
     9   2                       0                       0      13.279999999999999
    10   3      1.6599999999999999      1.6599999999999999                   14.94
    11   4                       0                       0      16.599999999999998
    12   5      1.6599999999999999      1.6599999999999999      18.259999999999998
    13   3                       0                       0      19.919999999999998
    14   5      1.6599999999999999      1.6599999999999999      21.579999999999998
    15   2                       0                       0      23.239999999999998
    16   5      1.6599999999999999      1.6599999999999999      24.899999999999999
    17   5                       0                       0      26.559999999999999
    18   4      1.6599999999999999      1.6599999999999999      28.219999999999999
    19   1                       0                       0      29.879999999999999
    20   4      1.6599999999999999      1.6599999999999999      31.539999999999999
    21   3                       0                       0      33.199999999999996
    22   4      1.6599999999999999      1.6599999999999999      34.859999999999992
    23   5                       0                       0      36.519999999999996
    24   5      1.6599999999999999      1.6599999999999999      38.179999999999993
    25   1                       0                       0      39.839999999999996
    26   1      1.6599999999999999      1.6599999999999999      41.499999999999993
    27   2                       0                       0      43.159999999999997
    28   2      1.6599999999999999      1.6599999999999999      44.819999999999993
    29   1                       0                       0      46.479999999999997
    30   2      1.6599999999999999      1.6599999999999999      48.139999999999993
    31   1                       0                       0      49.799999999999997
    32   4      1.6599999999999999      1.6599999999999999      51.459999999999994
    33   4                       0                       0      53.119999999999997
    34   4      1.6599999999999999      1.6599999999999999      54.779999999999994
    35   4                       0                       0      56.439999999999998
    36   1      1.6599999999999999      1.6599999999999999      58.099999999999994
    37   2                       0                       0      59.759999999999998
    38   1      1.6599999999999999      1.6599999999999999      61.419999999999995
    39   5                       0                       0      63.079999999999998
    40   2      1.6599999999999999      1.6599999999999999      64.739999999999995
    41   1                       0      3.3199999999999998                       0
    42   3      1.6599999999999999      4.9799999999999995      1.6599999999999999
    43   3                       0      3.3199999999999998      3.3199999999999998
    44   3      1.6599999999999999      4.9799999999999995      4.9799999999999995
    45   4                       0      3.3199999999999998      6.6399999999999997
    46   3      1.6599999999999999      4.9799999999999995      8.2999999999999989
    47   2                       0      3.3199999999999998      9.9599999999999991
    48   3      1.6599999999999999      4.9799999999999995      11.619999999999999
    49   3                       0      3.3199999999999998      13.279999999999999
    50   5      1.6599999999999999      4.9799999999999995                   14.94
    51   4                       0      3.3199999999999998      16.599999999999998
    52   5      1.6599999999999999      4.9799999999999995      18.259999999999998
    53   4                       0      3.3199999999999998      19.919999999999998
    54   2      1.6599999999999999      4.9799999999999995      21.579999999999998
    55   3                       0      3.3199999999999998      23.239999999999998
    56   3      1.6599999999999999      4.9799999999999995      24.899999999999999
    57   3                       0      3.3199999999999998      26.559999999999999
    58   2      1.6599999999999999      4.9799999999999995      28.219999999999999
    59   3                       0      3.3199999999999998      29.879999999999999
    60   5      1.6599999999999999      4.9799999999999995      31.539999999999999
    61   3                       0      3.3199999999999998      33.199999999999996
    62   1      1.6599999999999999      4.9799999999999995      34.859999999999992
    63   3                       0      3.3199999999999998      36.519999999999996
    64   3      1.6599999999999999      4.9799999999999995      38.179999999999993
    65   4                       0      3.3199999999999998      39.839999999999996
    66   2      1.6599999999999999      4.9799999999999995      41.499999999999993
    67   5                       0      3.3199999999999998      43.159999999999997
    68   2      1.6599999999999999      4.9799999999999995      44.819999999999993
    69   5                       0      3.3199999999999998      46.479999999999997
    70   3      1.6599999999999999      4.9799999999999995      48.139999999999993
    71   4                       0      3.3199999999999998      49.799999999999997
    72   1      1.6599999999999999      4.9799999999999995      51.459999999999994
    73   1                       0      3.3199999999999998      53.119999999999997
    74   3      1.6599999999999999      4.9799999999999995      54.779999999999994
    75   3                       0      3.3199999999999998      56.439999999999998
    76   1      1.6599999999999999      4.9799999999999995      58.099999999999994
    77   5                       0      3.3199999999999998      59.759999999999998
    78   4      1.6599999999999999      4.9799999999999995      61.419999999999995
    79   3                       0      3.3199999999999998      63.079999999999998
    80   5      1.6599999999999999      4.9799999999999995      64.739999999999995
    81   2                       0      6.6399999999999997                       0
    82   5      1.6599999999999999      8.2999999999999989      1.6599999999999999
    83   2                       0      6.6399999999999997      3.3199999999999998
    84   1      1.6599999999999999      8.2999999999999989      4.9799999999999995
    85   2                       0      6.6399999999999997      6.6399999999999997
    86   4      1.6599999999999999      8.2999999999999989      8.2999999999999989
    87   2                       0      6.6399999999999997      9.9599999999999991
    88   2      1.6599999999999999      8.2999999999999989      11.619999999999999
    89   4                       0      6.6399999999999997      13.279999999999999
    90   2      1.6599999999999999      8.2999999999999989                   14.94
    91   5                       0      6.6399999999999997      16.599999999999998
    92   4      1.6599999999999999      8.2999999999999989      18.259999999999998
    93   3                       0      6.6399999999999997      19.919999999999998
    94   4      1.6599999999999999      8.2999999999999989      21.579999999999998
    95   5                       0      6.6399999999999997      23.239999999999998
    96   2      1.6599999999999999      8.2999999999999989      24.899999999999999
    97   3                       0      6.6399999999999997      26.559999999999999
    98   1      1.6599999999999999      8.2999999999999989      28.219999999999999
    99   5                       0      6.6399999999999997      29.879999999999999
   100   5      1.6599999999999999      8.2999999999999989      31.539999999999999
   101   5                       0      6.6399999999999997      33.199999999999996
   102   5      1.6599999999999999      8.2999999999999989      34.859999999999992
   103   2                       0      6.6399999999999997      36.519999999999996
   104   2      1.6599999999999999      8.2999999999999989      38.179999999999993
   105   3                       0      6.6399999999999997      39.839999999999996
   106   2      1.6599999999999999      8.2999999999999989      41.499999999999993
   107   1                       0      6.6399999999999997      43.159999999999997
   108   4      1.6599999999999999      8.2999999999999989      44.819999999999993
   109   1                       0      6.6399999999999997      46.479999999999997
   110   3      1.6599999999999999      8.2999999999999989      48.139999999999993
   111   3                       0      6.6399999999999997      49.799999999999997
   112   5      1.6599999999999999      8.2999999999999989      51.459999999999994
   113   5                       0      6.6399999999999997      53.119999999999997
   114   5      1.6599999999999999      8.2999999999999989      54.779999999999994
   115   5                       0      6.6399999999999997      56.439999999999998
   116   3      1.6599999999999999      8.2999999999999989      58.099999999999994
   117   2                       0      6.6399999999999997      59.759999999999998
   118   3      1.6599999999999999      8.2999999999999989      61.419999999999995
   119   5                       0      6.6399999999999997      63.079999999999998
   120   4      1.6599999999999999      8.2999999999999989      64.739999999999995
   121   2                       0      9.9599999999999991                       0
   122   1      1.6599999999999999      11.619999999999999      1.6599999999999999
   123   4                       0      9.9599999999999991      3.3199999999999998
   124   2      1.6599999999999999      11.619999999999999      4.9799999999999995
   125   2                       0      9.9599999999999991      6.6399999999999997
   126   3      1.6599999999999999      11.619999999999999      8.2999999999999989
   127   1                       0      9.9599999999999991      9.9599999999999991
   128   2      1.6599999999999999      11.619999999999999      11.619999999999999
   129   5                       0      9.9599999999999991      13.279999999999999
   130   3      1.6599999999999999      11.619999999999999                   14.94
   131   4                       0      9.9599999999999991      16.599999999999998
   132   1      1.6599999999999999      11.619999999999999      18.259999999999998
   133   4                       0      9.9599999999999991      19.919999999999998
   134   2      1.6599999999999999      11.619999999999999      21.579999999999998
   135   5                       0      9.9599999999999991      23.239999999999998
   136   2      1.6599999999999999      11.619999999999999      24.899999999999999
   137   3                       0      9.9599999999999991      26.559999999999999
   138   1      1.6599999999999999      11.619999999999999      28.219999999999999
   139   5                       0      9.9599999999999991      29.879999999999999
   140   4      1.6599999999999999      11.619999999999999      31.539999999999999
   141   4                       0      9.9599999999999991      33.199999999999996
   142   3      1.6599999999999999      11.619999999999999      34.859999999999992
   143   4                       0      9.9599999999999991      36.519999999999996
   144   3      1.6599999999999999      11.619999999999999      38.179999999999993
   145   2                       0      9.9599999999999991      39.839999999999996
   146   5      1.6599999999999999      11.619999999999999      41.499999999999993
   147   3                       0      9.9599999999999991      43.159999999999997
   148   1      1.6599999999999999      11.619999999999999      44.819999999999993
   149   2                       0      9.9599999999999991      46.479999999999997
   150   3      1.6599999999999999      11.619999999999999      48.139999999999993
   151   1                       0      9.9599999999999991      49.799999999999997
   152   5      1.6599999999999999      11.619999999999999      51.459999999999994
   153   5                       0      9.9599999999999991      53.119999999999997
   154   2      1.6599999999999999      11.619999999999999      54.779999999999994
   155   3                       0      9.9599999999999991      56.439999999999998
   156   3      1.6599999999999999      11.619999999999999      58.099999999999994
   157   5                       0      9.9599999999999991      59.759999999999998
   158   3      1.6599999999999999      11.619999999999999      61.419999999999995
   159   4                       0      9.9599999999999991      63.079999999999998
   160   2      1.6599999999999999      11.619999999999999      64.739999999999995
   161   2                       0      13.279999999999999                       0
   162   4      1.6599999999999999                   14.94      1.6599999999999999
   163   5                       0      13.279999999999999      3.3199999999999998
   164   2      1.6599999999999999                   14.94      4.9799999999999995
   165   3                       0      13.279999999999999      6.6399999999999997
   166   4      1.6599999999999999                   14.94      8.2999999999999989
   167   1                       0      13.279999999999999      9.9599999999999991
   168   5      1.6599999999999999                   14.94      11.619999999999999
   169   3                       0      13.279999999999999      13.279999999999999
   170   4      1.6599999999999999                   14.94                   14.94
   171   1                       0      13.279999999999999      16.599999999999998
   172   1      1.6599999999999999                   14.94      18.259999999999998
   173   4                       0      13.279999999999999      19.919999999999998
   174   1      1.6599999999999999                   14.94      21.579999999999998
   175   3                       0      13.279999999999999      23.239999999999998
   176   4      1.6599999999999999                   14.94      24.899999999999999
   177   3                       0      13.279999999999999      26.559999999999999
   178   2      1.6599999999999999                   14.94      28.219999999999999
   179   5                       0      13.279999999999999      29.879999999999999
   180   1      1.6599999999999999                   14.94      31.539999999999999
   181   3                       0      13.279999999999999      33.199999999999996
   182   4      1.6599999999999999                   14.94      34.859999999999992
   183   1                       0      13.279999999999999      36.519999999999996
   184   3      1.6599999999999999                   14.94      38.179999999999993
   185   3                       0      13.279999999999999      39.839999999999996
   186   3      1.6599999999999999                   14.94      41.499999999999993
   187   4                       0      13.279999999999999      43.159999999999997
   188   5      1.6599999999999999                   14.94      44.819999999999993
   189   1                       0      13.279999999999999      46.479999999999997
   190   2      1.6599999999999999                   14.94      48.139999999999993
   191   3                       0      13.279999999999999      49.799999999999997
   192   1      1.6599999999999999                   14.94      51.459999999999994
   193   5                       0      13.279999999999999      53.119999999999997
   194   4      1.6599999999999999                   14.94      54.779999999999994
   195   3                       0      13.279999999999999      56.439999999999998
   196   5      1.6599999999999999                   14.94      58.099999999999994
   197   5                       0      13.279999999999999      59.759999999999998
   198   2      1.6599999999999999                   14.94      61.419999999999995
   199   3                       0      13.279999999999999      63.079999999999998
   200   1      1.6599999999999999                   14.94      64.739999999999995
   201   4                       0      16.599999999999998                       0
   202   5      1.6599999999999999      18.259999999999998      1.6599999999999999
   203   5                       0      16.599999999999998      3.3199999999999998
   204   3      1.6599999999999999      18.259999999999998      4.9799999999999995
   205   2                       0      16.599999999999998      6.6399999999999997
   206   1      1.6599999999999999      18.259999999999998      8.2999999999999989
   207   2                       0      16.599999999999998      9.9599999999999991
   208   5      1.6599999999999999      18.259999999999998      11.619999999999999
   209   4                       0      16.599999999999998      13.279999999999999
   210   4      1.6599999999999999      18.259999999999998                   14.94
   211   2                       0      16.599999999999998      16.599999999999998
   212   2      1.6599999999999999      18.259999999999998      18.259999999999998
   213   1                       0      16.599999999999998      19.919999999999998
   214   4      1.6599999999999999      18.259999999999998      21.579999999999998
   215   1                       0      16.599999999999998      23.239999999999998
   216   4      1.6599999999999999      18.259999999999998      24.899999999999999
   217   2                       0      16.599999999999998      26.559999999999999
   218   4      1.6599999999999999      18.259999999999998      28.219999999999999
   219   2                       0      16.599999999999998      29.879999999999999
   220   5      1.6599999999999999      18.259999999999998      31.539999999999999
   221   1                       0      16.599999999999998      33.199999999999996
   222   4      1.6599999999999999      18.259999999999998      34.859999999999992
   223   4                       0      16.599999999999998      36.519999999999996
   224   3      1.6599999999999999      18.259999999999998      38.179999999999993
   225   3                       0      16.599999999999998      39.839999999999996
   226   1      1.6599999999999999      18.259999999999998      41.499999999999993
   227   3                       0      16.599999999999998      43.159999999999997
   228   5      1.6599999999999999      18.259999999999998      44.819999999999993
   229   5                       0      16.599999999999998      46.479999999999997
   230   1      1.6599999999999999      18.259999999999998      48.139999999999993
   231   5                       0      16.599999999999998      49.799999999999997
   232   1      1.6599999999999999      18.259999999999998      51.459999999999994
   233   2                       0      16.599999999999998      53.119999999999997
   234   4      1.6599999999999999      18.259999999999998      54.779999999999994
   235   5                       0      16.599999999999998      56.439999999999998
   236   4      1.6599999999999999      18.259999999999998      58.099999999999994
   237   4                       0      16.599999999999998      59.759999999999998
   238   5      1.6599999999999999      18.259999999999998      61.419999999999995
   239   4                       0      16.599999999999998      63.079999999999998
   240   5      1.6599999999999999      18.259999999999998      64.739999999999995
   241   4                       0      19.919999999999998                       0
   242   4      1.6599999999999999      21.579999999999998      1.6599999999999999
   243   4                       0      19.919999999999998      3.3199999999999998
   244   3      1.6599999999999999      21.579999999999998      4.9799999999999995
   245   4                       0      19.919999999999998      6.6399999999999997
   246   4      1.6599999999999999      21.579999999999998      8.2999999999999989
   247   1                       0      19.919999999999998      9.9599999999999991
   248   1      1.6599999999999999      21.579999999999998      11.619999999999999
   249   2                       0      19.919999999999998      13.279999999999999
   250   1      1.6599999999999999      21.579999999999998                   14.94
   251   1                       0      19.919999999999998      16.599999999999998
   252   3      1.6599999999999999      21.579999999999998      18.259999999999998
   253   2                       0      19.919999999999998      19.919999999999998
   254   5      1.6599999999999999      21.579999999999998      21.579999999999998
   255   2                       0      19.919999999999998      23.239999999999998
   256   1      1.6599999999999999      21.579999999999998      24.899999999999999
   257   5                       0      19.919999999999998      26.559999999999999
   258   5      1.6599999999999999      21.579999999999998      28.219999999999999
   259   5                       0      19.919999999999998      29.879999999999999
   260   5      1.6599999999999999      21.579999999999998      31.539999999999999
   261   4                       0      19.919999999999998      33.199999999999996
   262   3      1.6599999999999999      21.579999999999998      34.859999999999992
   263   3                       0      19.919999999999998      36.519999999999996
   264   3      1.6599999999999999      21.579999999999998      38.179999999999993
   265   4                       0      19.919999999999998      39.839999999999996
   266   5      1.6599999999999999      21.579999999999998      41.499999999999993
   267   1                       0      19.919999999999998      43.159999999999997
   268   3      1.6599999999999999      21.579999999999998      44.819999999999993
   269   1                       0      19.919999999999998      46.479999999999997
   270   4      1.6599999999999999      21.579999999999998      48.139999999999993
   271   1                       0      19.919999999999998      49.799999999999997
   272   5      1.6599999999999999      21.579999999999998      51.459999999999994
   273   1                       0      19.919999999999998      53.119999999999997
   274   2      1.6599999999999999      21.579999999999998      54.779999999999994
   275   5                       0      19.919999999999998      56.439999999999998
   276   2      1.6599999999999999      21.579999999999998      58.099999999999994
   277   5                       0      19.919999999999998      59.759999999999998
   278   5      1.6599999999999999      21.579999999999998      61.419999999999995
   279   5                       0      19.919999999999998      63.079999999999998
   280   4      1.6599999999999999      21.579999999999998      64.739999999999995
   281   5                       0      23.239999999999998                       0
   282   5      1.6599999999999999      24.899999999999999      1.6599999999999999
   283   1                       0      23.239999999999998      3.3199999999999998
   284   1      1.6599999999999999      24.899999999999999      4.9799999999999995
   285   4                       0      23.239999999999998      6.6399999999999997
   286   2      1.6599999999999999      24.899999999999999      8.2999999999999989
   287   3                       0      23.239999999999998      9.9599999999999991
   288   4      1.6599999999999999      24.899999999999999      11.619999999999999
   289   1                       0      23.239999999999998      13.279999999999999
   290   3      1.6599999999999999      24.899999999999999                   14.94
   291   1                       0      23.239999999999998      16.599999999999998
   292   4      1.6599999999999999      24.899999999999999      18.259999999999998
   293   1                       0      23.239999999999998      19.919999999999998
   294   5      1.6599999999999999      24.899999999999999      21.579999999999998
   295   3                       0      23.239999999999998      23.239999999999998
   296   3      1.6599999999999999      24.899999999999999      24.899999999999999
   297   2                       0      23.239999999999998      26.559999999999999
   298   3      1.6599999999999999      24.899999999999999      28.219999999999999
   299   2                       0      23.239999999999998      29.879999999999999
   300   1      1.6599999999999999      24.899999999999999      31.539999999999999
   301   4                       0      23.239999999999998      33.199999999999996
   302   5      1.6599999999999999      24.899999999999999      34.859999999999992
   303   4                       0      23.239999999999998      36.519999999999996
   304   1      1.6599999999999999      24.899999999999999      38.179999999999993
   305   2                       0      23.239999999999998      39.839999999999996
   306   1      1.6599999999999999      24.899999999999999      41.499999999999993
   307   2                       0      23.239999999999998      43.159999999999997
   308   1      1.6599999999999999      24.899999999999999      44.819999999999993
   309   4                       0      23.239999999999998      46.479999999999997
   310   2      1.6599999999999999      24.899999999999999      48.139999999999993
   311   4                       0      23.239999999999998      49.799999999999997
   312   5      1.6599999999999999      24.899999999999999      51.459999999999994
   313   3                       0      23.239999999999998      53.119999999999997
   314   2      1.6599999999999999      24.899999999999999      54.779999999999994
   315   4                       0      23.239999999999998      56.439999999999998
   316   2      1.6599999999999999      24.899999999999999      58.099999999999994
   317   3                       0      23.239999999999998      59.759999999999998
   318   1      1.6599999999999999      24.899999999999999      61.419999999999995
   319   1                       0      23.239999999999998      63.079999999999998
   320   2      1.6599999999999999      24.899999999999999      64.739999999999995
   321   5                       0      26.559999999999999                       0
   322   3      1.6599999999999999      28.219999999999999      1.6599999999999999
   323   3                       0      26.559999999999999      3.3199999999999998
   324   3      1.6599999999999999      28.219999999999999      4.9799999999999995
   325   3                       0      26.559999999999999      6.6399999999999997
   326   5      1.6599999999999999      28.219999999999999      8.2999999999999989
   327   3                       0      26.559999999999999      9.9599999999999991
   328   5      1.6599999999999999      28.219999999999999      11.619999999999999
   329   2                       0      26.559999999999999      13.279999999999999
   330   4      1.6599999999999999      28.219999999999999                   14.94
   331   4                       0      26.559999999999999      16.599999999999998
   332   2      1.6599999999999999      28.219999999999999      18.259999999999998
   333   5                       0      26.559999999999999      19.919999999999998
   334   2      1.6599999999999999      28.219999999999999      21.579999999999998
   335   3                       0      26.559999999999999      23.239999999999998
   336   1      1.6599999999999999      28.219999999999999      24.899999999999999
   337   2                       0      26.559999999999999      26.559999999999999
   338   5      1.6599999999999999      28.219999999999999      28.219999999999999
   339   3                       0      26.559999999999999      29.879999999999999
   340   2      1.6599999999999999      28.219999999999999      31.539999999999999
   341   5                       0      26.559999999999999      33.199999999999996
   342   5      1.6599999999999999      28.219999999999999      34.859999999999992
   343   4                       0      26.559999999999999      36.519999999999996
   344   1      1.6599999999999999      28.219999999999999      38.179999999999993
   345   1                       0      26.559999999999999      39.839999999999996
   346   1      1.6599999999999999      28.219999999999999      41.499999999999993
   347   5                       0      26.559999999999999      43.159999999999997
   348   3      1.6599999999999999      28.219999999999999      44.819999999999993
   349   1                       0      26.559999999999999      46.479999999999997
   350   2      1.6599999999999999      28.219999999999999      48.139999999999993
   351   1                       0      26.559999999999999      49.799999999999997
   352   5      1.6599999999999999      28.219999999999999      51.459999999999994
   353   4                       0      26.559999999999999      53.119999999999997
   354   3      1.6599999999999999      28.219999999999999      54.779999999999994
   355   2                       0      26.559999999999999      56.439999999999998
   356   3      1.6599999999999999      28.219999999999999      58.099999999999994
   357   1                       0      26.559999999999999      59.759999999999998
   358   2      1.6599999999999999      28.219999999999999      61.419999999999995
   359   5                       0      26.559999999999999      63.079999999999998