(written by ASE)

16000 atoms
5 atom types

0.0      67.400000000000006  xlo xhi
0.0      67.400000000000006  ylo yhi
0.0      67.400000000000006  zlo zhi

Atoms # atomic

     1   4                       0                       0                       0
     2   5      1.6850000000000001      1.6850000000000001      1.6850000000000001
     3   3                       0                       0      3.3700000000000001
     4   4      1.6850000000000001      1.6850000000000001      5.0549999999999997
     5   1                       0                       0      6.7400000000000002
     6   5      1.6850000000000001      1.6850000000000001      8.4250000000000007
     7   5                       0                       0      10.109999999999999
     8   4      1.6850000000000001      1.6850000000000001                  11.795
     9   5                       0                       0                   13.48
    10   3      1.6850000000000001      1.6850000000000001      15.165000000000001
    11   4                       0                       0      16.850000000000001
    12   3      1.6850000000000001      1.6850000000000001                  18.535
    13   3                       0                       0      20.219999999999999
    14   4      1.6850000000000001      1.6850000000000001      21.904999999999998
    15   4                       0                       0                   23.59
    16   5      1.6850000000000001      1.6850000000000001      25.274999999999999
    17   3                       0                       0      26.960000000000001
    18   1      1.6850000000000001      1.6850000000000001                  28.645
    19   3                       0                       0      30.330000000000002
    20   1      1.6850000000000001      1.6850000000000001      32.015000000000001
    21   2                       0                       0      33.700000000000003
    22   4      1.6850000000000001      1.6850000000000001      35.385000000000005
    23   2                       0                       0                   37.07
    24   4      1.6850000000000001      1.6850000000000001      38.755000000000003
    25   3                       0                       0      40.439999999999998
    26   3      1.6850000000000001      1.6850000000000001                  42.125
    27   5                       0                       0      43.810000000000002
    28   4      1.6850000000000001      1.6850000000000001      45.495000000000005
    29   1                       0                       0                   47.18
    30   4      1.6850000000000001      1.6850000000000001      48.865000000000002
    31   5                       0                       0      50.550000000000004
    32   5      1.6850000000000001      1.6850000000000001      52.235000000000007
    33   4                       0                       0      53.920000000000002
    34   2      1.6850000000000001      1.6850000000000001      55.605000000000004
    35   2                       0                       0      57.289999999999999
    36   4      1.6850000000000001      1.6850000000000001      58.975000000000001
    37   2                       0                       0      60.660000000000004
    38   4      1.6850000000000001      1.6850000000000001      62.345000000000006
    39   2                       0                       0      64.030000000000001
    40   1      1.6850000000000001      1.6850000000000001      65.715000000000003
    41   1                       0      3.3700000000000001                       0
    42   1      1.6850000000000001      5.0549999999999997      1.6850000000000001
    43   4                       0      3.3700000000000001      3.3700000000000001
    44   2      1.6850000000000001      5.0549999999999997      5.0549999999999997
    45   2                       0      3.3700000000000001      6.7400000000000002
    46   2      1.6850000000000001      5.0549999999999997      8.4250000000000007
    47   1                       0      3.3700000000000001      10.109999999999999
    48   2      1.6850000000000001      5.0549999999999997                  11.795
    49   1                       0      3.3700000000000001                   13.48
    50   3      1.6850000000000001      5.0549999999999997      15.165000000000001
    51   2                       0      3.3700000000000001      16.850000000000001
    52   2      1.6850000000000001      5.0549999999999997                  18.535
    53   2                       0      3.3700000000000001      20.219999999999999
    54   2      1.6850000000000001      5.0549999999999997      21.904999999999998
    55   3                       0      3.3700000000000001                   23.59
    56   2      1.6850000000000001      5.0549999999999997      25.274999999999999
    57   2                       0      3.3700000000000001      26.960000000000001
    58   4      1.6850000000000001      5.0549999999999997                  28.645
    59   4                       0      3.3700000000000001      30.330000000000002
    60   2      1.6850000000000001      5.0549999999999997      32.015000000000001
    61   2                       0      3.3700000000000001      33.700000000000003
    62   1      1.6850000000000001      5.0549999999999997      35.385000000000005
    63   5                       0      3.3700000000000001                   37.07
    64   3      1.6850000000000001      5.0549999999999997      38.755000000000003
    65   2                       0      3.3700000000000001      40.439999999999998
    66   4      1.6850000000000001      5.0549999999999997                  42.125
    67   4                       0      3.3700000000000001      43.810000000000002
    68   2      1.6850000000000001      5.0549999999999997      45.495000000000005
    69   3                       0      3.3700000000000001                   47.18
    70   4      1.6850000000000001      5.0549999999999997      48.865000000000002
    71   5                       0      3.3700000000000001      50.550000000000004
    72   1      1.6850000000000001      5.0549999999999997      52.235000000000007
    73   5                       0      3.3700000000000001      53.920000000000002
    74   4      1.6850000000000001      5.0549999999999997      55.605000000000004
    75   3                       0      3.3700000000000001      57.289999999999999
    76   4      1.6850000000000001      5.0549999999999997      58.975000000000001
    77   3                       0      3.3700000000000001      60.660000000000004
    78   5      1.6850000000000001      5.0549999999999997      62.345000000000006
    79   4                       0      3.3700000000000001      64.030000000000001
    80   3      1.6850000000000001      5.0549999999999997      65.715000000000003
    81   4                       0      6.7400000000000002                       0
    82   4      1.6850000000000001      8.4250000000000007      1.6850000000000001
    83   1                       0      6.7400000000000002      3.3700000000000001
    84   3      1.6850000000000001      8.4250000000000007      5.0549999999999997
    85   1                       0      6.7400000000000002      6.7400000000000002
    86   5      1.6850000000000001      8.4250000000000007      8.4250000000000007
    87   1                       0      6.7400000000000002      10.109999999999999
    88   1      1.6850000000000001      8.4250000000000007                  11.795
    89   4                       0      6.7400000000000002                   13.48
    90   4      1.6850000000000001      8.4250000000000007      15.165000000000001
    91   4                       0      6.7400000000000002      16.850000000000001
    92   5      1.6850000000000001      8.4250000000000007                  18.535
    93   1                       0      6.7400000000000002      20.219999999999999
    94   4      1.6850000000000001      8.4250000000000007      21.904999999999998
    95   4                       0      6.7400000000000002                   23.59
    96   3      1.6850000000000001      8.4250000000000007      25.274999999999999
    97   3                       0      6.7400000000000002      26.960000000000001
    98   5      1.6850000000000001      8.4250000000000007                  28.645
    99   5                       0      6.7400000000000002      30.330000000000002
   100   1      1.6850000000000001      8.4250000000000007      32.015000000000001
   101   4                       0      6.7400000000000002      33.700000000000003
   102   5      1.6850000000000001      8.4250000000000007      35.385000000000005
   103   3                       0      6.7400000000000002                   37.07
   104   5      1.6850000000000001      8.4250000000000007      38.755000000000003
   105   5                       0      6.7400000000000002      40.439999999999998
   106   5      1.6850000000000001      8.4250000000000007                  42.125
   107   2                       0      6.7400000000000002      43.810000000000002
   108   2      1.6850000000000001      8.4250000000000007      45.495000000000005
   109   1                       0      6.7400000000000002                   47.18
   110   3      1.6850000000000001      8.4250000000000007      48.865000000000002
   111   5                       0      6.7400000000000002      50.550000000000004
   112   1      1.6850000000000001      8.4250000000000007      52.235000000000007
   113   3                       0      6.7400000000000002      53.920000000000002
   114   5      1.6850000000000001      8.4250000000000007      55.605000000000004
   115   4                       0      6.7400000000000002      57.289999999999999
   116   5      1.6850000000000001      8.4250000000000007      58.975000000000001
   117   1                       0      6.7400000000000002      60.660000000000004
   118   4      1.6850000000000001      8.4250000000000007      62.345000000000006
   119   3                       0      6.7400000000000002      64.030000000000001
   120   3      1.6850000000000001      8.4250000000000007      65.715000000000003
   121   3                       0      10.109999999999999                       0
   122   3      1.6850000000000001                  11.795      1.6850000000000001
   123   1                       0      10.109999999999999      3.3700000000000001
   124   2      1.6850000000000001                  11.795      5.0549999999999997
   125   2                       0      10.109999999999999      6.7400000000000002
   126   5      1.6850000000000001                  11.795      8.4250000000000007
   127   5                       0      10.109999999999999      10.109999999999999
   128   2      1.6850000000000001                  11.795                  11.795
   129   3                       0      10.109999999999999                   13.48
   130   3      1.6850000000000001                  11.795      15.165000000000001
   131   5                       0      10.109999999999999      16.850000000000001
   132   2      1.6850000000000001                  11.795                  18.535
   133   1                       0      10.109999999999999      20.219999999999999
   134   1      1.6850000000000001                  11.795      21.904999999999998
   135   3                       0      10.109999999999999                   23.59
   136   3      1.6850000000000001                  11.795      25.274999999999999
   137   5                       0      10.109999999999999      26.960000000000001
   138   3      1.6850000000000001                  11.795                  28.645
   139   5                       0      10.109999999999999      30.330000000000002
   140   3      1.6850000000000001                  11.795      32.015000000000001
   141   2                       0      10.109999999999999      33.700000000000003
   142   1      1.6850000000000001                  11.795      35.385000000000005
   143   3                       0      10.109999999999999                   37.07
   144   4      1.6850000000000001                  11.795      38.755000000000003
   145   1                       0      10.109999999999999      40.439999999999998
   146   5      1.6850000000000001                  11.795                  42.125
   147   4                       0      10.109999999999999      43.810000000000002
   148   1      1.6850000000000001                  11.795      45.495000000000005
   149   4                       0      10.109999999999999                   47.18
   150   1      1.6850000000000001                  11.795      48.865000000000002
   151   3                       0      10.109999999999999      50.550000000000004
   152   1      1.6850000000000001                  11.795      52.235000000000007
   153   3                       0      10.109999999999999      53.920000000000002
   154   4      1.6850000000000001                  11.795      55.605000000000004
   155   3                       0      10.109999999999999      57.289999999999999
   156   4      1.6850000000000001                  11.795      58.975000000000001
   157   3                       0      10.109999999999999      60.660000000000004
   158   5      1.6850000000000001                  11.795      62.345000000000006
   159   5                       0      10.109999999999999      64.030000000000001
   160   4      1.6850000000000001                  11.795      65.715000000000003
   161   2                       0                   13.48                       0
   162   3      1.6850000000000001      15.165000000000001      1.6850000000000001
   163   3                       0                   13.48      3.3700000000000001
   164   2      1.6850000000000001      15.165000000000001      5.0549999999999997
   165   4                       0                   13.48      6.7400000000000002
   166   3      1.6850000000000001      15.165000000000001      8.4250000000000007
   167   4                       0                   13.48      10.109999999999999
   168   2      1.6850000000000001      15.165000000000001                  11.795
   169   1                       0                   13.48                   13.48
   170   5      1.6850000000000001      15.165000000000001      15.165000000000001
   171   5                       0                   13.48      16.850000000000001
   172   4      1.6850000000000001      15.165000000000001                  18.535
   173   3                       0                   13.48      20.219999999999999
   174   1      1.6850000000000001      15.165000000000001      21.904999999999998
   175   2                       0                   13.48                   23.59
   176   5      1.6850000000000001      15.165000000000001      25.274999999999999
   177   5                       0                   13.48      26.960000000000001
   178   2      1.6850000000000001      15.165000000000001                  28.645
   179   2                       0                   13.48      30.330000000000002
   180   4      1.6850000000000001      15.165000000000001      32.015000000000001
   181   4                       0                   13.48      33.700000000000003
   182   2      1.6850000000000001      15.165000000000001      35.385000000000005
   183   5                       0                   13.48                   37.07
   184   3      1.6850000000000001      15.165000000000001      38.755000000000003
   185   5                       0                   13.48      40.439999999999998
   186   1      1.6850000000000001      15.165000000000001                  42.125
   187   1                       0                   13.48      43.810000000000002
   188   4      1.6850000000000001      15.165000000000001      45.495000000000005
   189   3                       0                   13.48                   47.18
   190   5      1.6850000000000001      15.165000000000001      48.865000000000002
   191   1                       0                   13.48      50.550000000000004
   192   5      1.6850000000000001      15.165000000000001      52.235000000000007
   193   5                       0                   13.48      53.920000000000002
   194   2      1.6850000000000001      15.165000000000001      55.605000000000004
   195   2                       0                   13.48      57.289999999999999
   196   2      1.6850000000000001      15.165000000000001      58.975000000000001
   197   3                       0                   13.48      60.660000000000004
   198   3      1.6850000000000001      15.165000000000001      62.345000000000006
   199   3                       0                   13.48      64.030000000000001
   200   2      1.6850000000000001      15.165000000000001      65.715000000000003
   201   1                       0      16.850000000000001                       0
   202   1      1.6850000000000001                  18.535      1.6850000000000001
   203   1                       0      16.850000000000001      3.3700000000000001
   204   1      1.6850000000000001                  18.535      5.0549999999999997
   205   2                       0      16.850000000000001      6.7400000000000002
   206   5      1.6850000000000001                  18.535      8.4250000000000007
   207   1                       0      16.850000000000001      10.109999999999999
   208   1      1.6850000000000001                  18.535                  11.795
   209   5                       0      16.850000000000001                   13.48
   210   3      1.6850000000000001                  18.535      15.165000000000001
   211   2                       0      16.850000000000001      16.850000000000001
   212   5      1.6850000000000001                  18.535                  18.535
   213   3                       0      16.850000000000001      20.219999999999999
   214   3      1.6850000000000001                  18.535      21.904999999999998
   215   3                       0      16.850000000000001                   23.59
   216   3      1.6850000000000001                  18.535      25.274999999999999
   217   1                       0      16.850000000000001      26.960000000000001
   218   4      1.6850000000000001                  18.535                  28.645
   219   2                       0      16.850000000000001      30.330000000000002
   220   1      1.6850000000000001                  18.535      32.015000000000001
   221   4                       0      16.850000000000001      33.700000000000003
   222   2      1.6850000000000001                  18.535      35.385000000000005
   223   2                       0      16.850000000000001                   37.07
   224   1      1.6850000000000001                  18.535      38.755000000000003
   225   4                       0      16.850000000000001      40.439999999999998
   226   3      1.6850000000000001                  18.535                  42.125
   227   4                       0      16.850000000000001      43.810000000000002
   228   3      1.6850000000000001                  18.535      45.495000000000005
   229   3                       0      16.850000000000001                   47.18
   230   4      1.6850000000000001                  18.535      48.865000000000002
   231   3                       0      16.850000000000001      50.550000000000004
   232   3      1.6850000000000001                  18.535      52.235000000000007
   233   4                       0      16.850000000000001      53.920000000000002
   234   5      1.6850000000000001                  18.535      55.605000000000004
   235   1                       0      16.850000000000001      57.289999999999999
   236   3      1.6850000000000001                  18.535      58.975000000000001
   237   5                       0      16.850000000000001      60.660000000000004
   238   2      1.6850000000000001                  18.535      62.345000000000006
   239   5                       0      16.850000000000001      64.030000000000001
   240   1      1.6850000000000001                  18.535      65.715000000000003
   241   4                       0      20.219999999999999                       0
   242   1      1.6850000000000001      21.904999999999998      1.6850000000000001
   243   4                       0      20.219999999999999      3.3700000000000001
   244   2      1.6850000000000001      21.904999999999998      5.0549999999999997
   245   3                       0      20.219999999999999      6.7400000000000002
   246   3      1.6850000000000001      21.904999999999998      8.4250000000000007
   247   5                       0      20.219999999999999      10.109999999999999
   248   3      1.6850000000000001      21.904999999999998                  11.795
   249   1                       0      20.219999999999999                   13.48
   250   5      1.6850000000000001      21.904999999999998      15.165000000000001
   251   1                       0      20.219999999999999      16.850000000000001
   252   1      1.6850000000000001      21.904999999999998                  18.535
   253   1                       0      20.219999999999999      20.219999999999999
   254   2      1.6850000000000001      21.904999999999998      21.904999999999998
   255   5                       0      20.219999999999999                   23.59
   256   5      1.6850000000000001      21.904999999999998      25.274999999999999
   257   3                       0      20.219999999999999      26.960000000000001
   258   5      1.6850000000000001      21.904999999999998                  28.645
   259   2                       0      20.219999999999999      30.330000000000002
   260   5      1.6850000000000001      21.904999999999998      32.015000000000001
   261   2                       0      20.219999999999999      33.700000000000003
   262   2      1.6850000000000001      21.904999999999998      35.385000000000005
   263   1                       0      20.219999999999999                   37.07
   264   1      1.6850000000000001      21.904999999999998      38.755000000000003
   265   5                       0      20.219999999999999      40.439999999999998
   266   2      1.6850000000000001      21.904999999999998                  42.125
   267   4                       0      20.219999999999999      43.810000000000002
   268   4      1.6850000000000001      21.904999999999998      45.495000000000005
   269   1                       0      20.219999999999999                   47.18
   270   3      1.6850000000000001      21.904999999999998      48.865000000000002
   271   5                       0      20.219999999999999      50.550000000000004
   272   2      1.6850000000000001      21.904999999999998      52.235000000000007
   273   5                       0      20.219999999999999      53.920000000000002
   274   1      1.6850000000000001      21.904999999999998      55.605000000000004
   275   2                       0      20.219999999999999      57.289999999999999
   276   5      1.6850000000000001      21.904999999999998      58.975000000000001
   277   4                       0      20.219999999999999      60.660000000000004
   278   2      1.6850000000000001      21.904999999999998      62.345000000000006
   279   4                       0      20.219999999999999      64.030000000000001
   280   5      1.6850000000000001      21.904999999999998      65.715000000000003
   281   2                       0                   23.59                       0
   282   4      1.6850000000000001      25.274999999999999      1.6850000000000001
   283   1                       0                   23.59      3.3700000000000001
   284   2      1.6850000000000001      25.274999999999999      5.0549999999999997
   285   3                       0                   23.59      6.7400000000000002
   286   1      1.6850000000000001      25.274999999999999      8.4250000000000007
   287   4                       0                   23.59      10.109999999999999
   288   2      1.6850000000000001      25.274999999999999                  11.795
   289   4                       0                   23.59                   13.48
   290   2      1.6850000000000001      25.274999999999999      15.165000000000001
   291   5                       0                   23.59      16.850000000000001
   292   5      1.6850000000000001      25.274999999999999                  18.535
   293   4                       0                   23.59      20.219999999999999
   294   1      1.6850000000000001      25.274999999999999      21.904999999999998
   295   4                       0                   23.59                   23.59
   296   2      1.6850000000000001      25.274999999999999      25.274999999999999
   297   2                       0                   23.59      26.960000000000001
   298   3      1.6850000000000001      25.274999999999999                  28.645
   299   1                       0                   23.59      30.330000000000002
   300   3      1.6850000000000001      25.274999999999999      32.015000000000001
   301   1                       0                   23.59      33.700000000000003
   302   5      1.6850000000000001      25.274999999999999      35.385000000000005
   303   2                       0                   23.59                   37.07
   304   5      1.6850000000000001      25.274999999999999      38.755000000000003
   305   5                       0                   23.59      40.439999999999998
   306   5      1.6850000000000001      25.274999999999999                  42.125
   307   2                       0                   23.59      43.810000000000002
   308   5      1.6850000000000001      25.274999999999999      45.495000000000005
   309   1                       0                   23.59                   47.18
   310   2      1.6850000000000001      25.274999999999999      48.865000000000002
   311   2                       0                   23.59      50.550000000000004
   312   3      1.6850000000000001      25.274999999999999      52.235000000000007
   313   3                       0                   23.59      53.920000000000002
   314   1      1.6850000000000001      25.274999999999999      55.605000000000004
   315   4                       0                   23.59      57.289999999999999
   316   3      1.6850000000000001      25.274999999999999      58.975000000000001
   317   5                       0                   23.59      60.660000000000004
   318   2      1.6850000000000001      25.274999999999999      62.345000000000006
   319   1                       0                   23.59      64.030000000000001
   320   5      1.6850000000000001      25.274999999999999      65.715000000000003
   321   1                       0      26.960000000000001                       0
   322   3      1.6850000000000001                  28.645      1.6850000000000001
   323   4                       0      26.960000000000001      3.3700000000000001
   324   2      1.6850000000000001                  28.645      5.0549999999999997
   325   5                       0      26.960000000000001      6.7400000000000002
   326   1      1.6850000000000001                  28.645      8.4250000000000007
   327   1                       0      26.960000000000001      10.109999999999999
   328   2      1.6850000000000001                  28.645                  11.795
   329   4                       0      26.960000000000001                   13.48
   330   4      1.6850000000000001                  28.645      15.165000000000001
   331   4                       0      26.960000000000001      16.850000000000001
   332   1      1.6850000000000001                  28.645                  18.535
   333   3                       0      26.960000000000001      20.219999999999999
   334   4      1.6850000000000001                  28.645      21.904999999999998
   335   4                       0      26.960000000000001                   23.59
   336   2      1.6850000000000001                  28.645      25.274999999999999
   337   2                       0      26.960000000000001      26.960000000000001
   338   1      1.6850000000000001                  28.645                  28.645
   339   2                       0      26.960000000000001      30.330000000000002
   340   4      1.6850000000000001                  28.645      32.015000000000001
   341   4                       0      26.960000000000001      33.700000000000003
   342   3      1.6850000000000001                  28.645      35.385000000000005
   343   2                       0      26.960000000000001                   37.07
   344   3      1.6850000000000001                  28.645      38.755000000000003
   345   3                       0      26.960000000000001      40.439999999999998
   346   2      1.6850000000000001                  28.645                  42.125
   347   5                       0      26.960000000000001      43.810000000000002
   348   2      1.6850000000000001                  28.645      45.495000000000005
   349   2                       0      26.960000000000001                   47.18
   350   5      1.6850000000000001                  28.645      48.865000000000002
   351   3                       0      26.960000000000001      50.550000000000004
   352   3      1.6850000000000001                  28.645      52.235000000000007
   353   5                       0      26.960000000000001      53.920000000000002
   354   2      1.6850000000000001                  28.645      55.605000000000004
   355   4                       0      26.960000000000001      57.289999999999999
   356   1      1.6850000000000001                  28.645      58.975000000000001
   357   3                       0      26.960000000000001      60.660000000000004
   358   4      1.6850000000000001                  28.645      62.345000000000006
   359   1                       0      26.960000000000001      64.030000000000001