(written by ASE)

16000 atoms
5 atom types

0.0      67.599999999999994  xlo xhi
0.0      67.599999999999994  ylo yhi
0.0      67.599999999999994  zlo zhi

Atoms # atomic

     1   3                       0                       0                       0
     2   1      1.6899999999999999      1.6899999999999999      1.6899999999999999
     3   1                       0                       0      3.3799999999999999
     4   3      1.6899999999999999      1.6899999999999999      5.0700000000000003
     5   5                       0                       0      6.7599999999999998
     6   5      1.6899999999999999      1.6899999999999999      8.4499999999999993
     7   2                       0                       0      10.140000000000001
     8   5      1.6899999999999999      1.6899999999999999                   11.83
     9   4                       0                       0                   13.52
    10   2      1.6899999999999999      1.6899999999999999      15.209999999999999
    11   1                       0                       0      16.899999999999999
    12   3      1.6899999999999999      1.6899999999999999                   18.59
    13   3                       0                       0      20.280000000000001
    14   1      1.6899999999999999      1.6899999999999999      21.970000000000002
    15   3                       0                       0                   23.66
    16   3      1.6899999999999999      1.6899999999999999      25.350000000000001
    17   3                       0                       0      27.039999999999999
    18   2      1.6899999999999999      1.6899999999999999                   28.73
    19   3                       0                       0      30.419999999999998
    20   3      1.6899999999999999      1.6899999999999999      32.109999999999999
    21   1                       0                       0      33.799999999999997
    22   2      1.6899999999999999      1.6899999999999999      35.489999999999995
    23   4                       0                       0                   37.18
    24   3      1.6899999999999999      1.6899999999999999      38.869999999999997
    25   2                       0                       0      40.560000000000002
    26   2      1.6899999999999999      1.6899999999999999                   42.25
    27   2                       0                       0      43.939999999999998
    28   1      1.6899999999999999      1.6899999999999999      45.629999999999995
    29   3                       0                       0                   47.32
    30   3      1.6899999999999999      1.6899999999999999      49.009999999999998
    31   4                       0                       0      50.699999999999996
    32   4      1.6899999999999999      1.6899999999999999      52.389999999999993
    33   3                       0                       0      54.079999999999998
    34   3      1.6899999999999999      1.6899999999999999      55.769999999999996
    35   1                       0                       0      57.460000000000001
    36   1      1.6899999999999999      1.6899999999999999      59.149999999999999
    37   2                       0                       0      60.839999999999996
    38   4      1.6899999999999999      1.6899999999999999      62.529999999999994
    39   3                       0                       0      64.219999999999999
    40   2      1.6899999999999999      1.6899999999999999      65.909999999999997
    41   5                       0      3.3799999999999999                       0
    42   2      1.6899999999999999      5.0700000000000003      1.6899999999999999
    43   1                       0      3.3799999999999999      3.3799999999999999
    44   2      1.6899999999999999      5.0700000000000003      5.0700000000000003
    45   1                       0      3.3799999999999999      6.7599999999999998
    46   4      1.6899999999999999      5.0700000000000003      8.4499999999999993
    47   5                       0      3.3799999999999999      10.140000000000001
    48   4      1.6899999999999999      5.0700000000000003                   11.83
    49   1                       0      3.3799999999999999                   13.52
    50   1      1.6899999999999999      5.0700000000000003      15.209999999999999
    51   3                       0      3.3799999999999999      16.899999999999999
    52   5      1.6899999999999999      5.0700000000000003                   18.59
    53   3                       0      3.3799999999999999      20.280000000000001
    54   4      1.6899999999999999      5.0700000000000003      21.970000000000002
    55   3                       0      3.3799999999999999                   23.66
    56   2      1.6899999999999999      5.0700000000000003      25.350000000000001
    57   5                       0      3.3799999999999999      27.039999999999999
    58   1      1.6899999999999999      5.0700000000000003                   28.73
    59   2                       0      3.3799999999999999      30.419999999999998
    60   3      1.6899999999999999      5.0700000000000003      32.109999999999999
    61   2                       0      3.3799999999999999      33.799999999999997
    62   4      1.6899999999999999      5.0700000000000003      35.489999999999995
    63   5                       0      3.3799999999999999                   37.18
    64   3      1.6899999999999999      5.0700000000000003      38.869999999999997
    65   3                       0      3.3799999999999999      40.560000000000002
    66   5      1.6899999999999999      5.0700000000000003                   42.25
    67   5                       0      3.3799999999999999      43.939999999999998
    68   4      1.6899999999999999      5.0700000000000003      45.629999999999995
    69   3                       0      3.3799999999999999                   47.32
    70   4      1.6899999999999999      5.0700000000000003      49.009999999999998
    71   3                       0      3.3799999999999999      50.699999999999996
    72   2      1.6899999999999999      5.0700000000000003      52.389999999999993
    73   2                       0      3.3799999999999999      54.079999999999998
    74   2      1.6899999999999999      5.0700000000000003      55.769999999999996
    75   4                       0      3.3799999999999999      57.460000000000001
    76   5      1.6899999999999999      5.0700000000000003      59.149999999999999
    77   1                       0      3.3799999999999999      60.839999999999996
    78   5      1.6899999999999999      5.0700000000000003      62.529999999999994
    79   4                       0      3.3799999999999999      64.219999999999999
    80   4      1.6899999999999999      5.0700000000000003      65.909999999999997
    81   3                       0      6.7599999999999998                       0
    82   2      1.6899999999999999      8.4499999999999993      1.6899999999999999
    83   3                       0      6.7599999999999998      3.3799999999999999
    84   4      1.6899999999999999      8.4499999999999993      5.0700000000000003
    85   2                       0      6.7599999999999998      6.7599999999999998
    86   1      1.6899999999999999      8.4499999999999993      8.4499999999999993
    87   4                       0      6.7599999999999998      10.140000000000001
    88   5      1.6899999999999999      8.4499999999999993                   11.83
    89   1                       0      6.7599999999999998                   13.52
    90   3      1.6899999999999999      8.4499999999999993      15.209999999999999
    91   4                       0      6.7599999999999998      16.899999999999999
    92   5      1.6899999999999999      8.4499999999999993                   18.59
    93   5                       0      6.7599999999999998      20.280000000000001
    94   5      1.6899999999999999      8.4499999999999993      21.970000000000002
    95   1                       0      6.7599999999999998                   23.66
    96   1      1.6899999999999999      8.4499999999999993      25.350000000000001
    97   3                       0      6.7599999999999998      27.039999999999999
    98   1      1.6899999999999999      8.4499999999999993                   28.73
    99   4                       0      6.7599999999999998      30.419999999999998
   100   4      1.6899999999999999      8.4499999999999993      32.109999999999999
   101   5                       0      6.7599999999999998      33.799999999999997
   102   2      1.6899999999999999      8.4499999999999993      35.489999999999995
   103   5                       0      6.7599999999999998                   37.18
   104   2      1.6899999999999999      8.4499999999999993      38.869999999999997
   105   1                       0      6.7599999999999998      40.560000000000002
   106   5      1.6899999999999999      8.4499999999999993                   42.25
   107   5                       0      6.7599999999999998      43.939999999999998
   108   3      1.6899999999999999      8.4499999999999993      45.629999999999995
   109   5                       0      6.7599999999999998                   47.32
   110   4      1.6899999999999999      8.4499999999999993      49.009999999999998
   111   5                       0      6.7599999999999998      50.699999999999996
   112   3      1.6899999999999999      8.4499999999999993      52.389999999999993
   113   1                       0      6.7599999999999998      54.079999999999998
   114   3      1.6899999999999999      8.4499999999999993      55.769999999999996
   115   1                       0      6.7599999999999998      57.460000000000001
   116   4      1.6899999999999999      8.4499999999999993      59.149999999999999
   117   5                       0      6.7599999999999998      60.839999999999996
   118   4      1.6899999999999999      8.4499999999999993      62.529999999999994
   119   3                       0      6.7599999999999998      64.219999999999999
   120   1      1.6899999999999999      8.4499999999999993      65.909999999999997
   121   1                       0      10.140000000000001                       0
   122   4      1.6899999999999999                   11.83      1.6899999999999999
   123   1                       0      10.140000000000001      3.3799999999999999
   124   1      1.6899999999999999                   11.83      5.0700000000000003
   125   2                       0      10.140000000000001      6.7599999999999998
   126   5      1.6899999999999999                   11.83      8.4499999999999993
   127   2                       0      10.140000000000001      10.140000000000001
   128   3      1.6899999999999999                   11.83                   11.83
   129   4                       0      10.140000000000001                   13.52
   130   1      1.6899999999999999                   11.83      15.209999999999999
   131   1                       0      10.140000000000001      16.899999999999999
   132   5      1.6899999999999999                   11.83                   18.59
   133   1                       0      10.140000000000001      20.280000000000001
   134   3      1.6899999999999999                   11.83      21.970000000000002
   135   3                       0      10.140000000000001                   23.66
   136   4      1.6899999999999999                   11.83      25.350000000000001
   137   4                       0      10.140000000000001      27.039999999999999
   138   5      1.6899999999999999                   11.83                   28.73
   139   4                       0      10.140000000000001      30.419999999999998
   140   2      1.6899999999999999                   11.83      32.109999999999999
   141   1                       0      10.140000000000001      33.799999999999997
   142   3      1.6899999999999999                   11.83      35.489999999999995
   143   4                       0      10.140000000000001                   37.18
   144   1      1.6899999999999999                   11.83      38.869999999999997
   145   2                       0      10.140000000000001      40.560000000000002
   146   3      1.6899999999999999                   11.83                   42.25
   147   5                       0      10.140000000000001      43.939999999999998
   148   2      1.6899999999999999                   11.83      45.629999999999995
   149   2                       0      10.140000000000001                   47.32
   150   5      1.6899999999999999                   11.83      49.009999999999998
   151   4                       0      10.140000000000001      50.699999999999996
   152   2      1.6899999999999999                   11.83      52.389999999999993
   153   5                       0      10.140000000000001      54.079999999999998
   154   4      1.6899999999999999                   11.83      55.769999999999996
   155   3                       0      10.140000000000001      57.460000000000001
   156   3      1.6899999999999999                   11.83      59.149999999999999
   157   3                       0      10.140000000000001      60.839999999999996
   158   4      1.6899999999999999                   11.83      62.529999999999994
   159   3                       0      10.140000000000001      64.219999999999999
   160   2      1.6899999999999999                   11.83      65.909999999999997
   161   1                       0                   13.52                       0
   162   3      1.6899999999999999      15.209999999999999      1.6899999999999999
   163   1                       0                   13.52      3.3799999999999999
   164   4      1.6899999999999999      15.209999999999999      5.0700000000000003
   165   3                       0                   13.52      6.7599999999999998
   166   2      1.6899999999999999      15.209999999999999      8.4499999999999993
   167   2                       0                   13.52      10.140000000000001
   168   5      1.6899999999999999      15.209999999999999                   11.83
   169   4                       0                   13.52                   13.52
   170   4      1.6899999999999999      15.209999999999999      15.209999999999999
   171   5                       0                   13.52      16.899999999999999
   172   4      1.6899999999999999      15.209999999999999                   18.59
   173   4                       0                   13.52      20.280000000000001
   174   1      1.6899999999999999      15.209999999999999      21.970000000000002
   175   5                       0                   13.52                   23.66
   176   3      1.6899999999999999      15.209999999999999      25.350000000000001
   177   5                       0                   13.52      27.039999999999999
   178   2      1.6899999999999999      15.209999999999999                   28.73
   179   3                       0                   13.52      30.419999999999998
   180   4      1.6899999999999999      15.209999999999999      32.109999999999999
   181   4                       0                   13.52      33.799999999999997
   182   4      1.6899999999999999      15.209999999999999      35.489999999999995
   183   2                       0                   13.52                   37.18
   184   2      1.6899999999999999      15.209999999999999      38.869999999999997
   185   4                       0                   13.52      40.560000000000002
   186   5      1.6899999999999999      15.209999999999999                   42.25
   187   3                       0                   13.52      43.939999999999998
   188   5      1.6899999999999999      15.209999999999999      45.629999999999995
   189   3                       0                   13.52                   47.32
   190   4      1.6899999999999999      15.209999999999999      49.009999999999998
   191   5                       0                   13.52      50.699999999999996
   192   4      1.6899999999999999      15.209999999999999      52.389999999999993
   193   1                       0                   13.52      54.079999999999998
   194   1      1.6899999999999999      15.209999999999999      55.769999999999996
   195   2                       0                   13.52      57.460000000000001
   196   3      1.6899999999999999      15.209999999999999      59.149999999999999
   197   2                       0                   13.52      60.839999999999996
   198   4      1.6899999999999999      15.209999999999999      62.529999999999994
   199   2                       0                   13.52      64.219999999999999
   200   3      1.6899999999999999      15.209999999999999      65.909999999999997
   201   2                       0      16.899999999999999                       0
   202   3      1.6899999999999999                   18.59      1.6899999999999999
   203   2                       0      16.899999999999999      3.3799999999999999
   204   1      1.6899999999999999                   18.59      5.0700000000000003
   205   2                       0      16.899999999999999      6.7599999999999998
   206   4      1.6899999999999999                   18.59      8.4499999999999993
   207   5                       0      16.899999999999999      10.140000000000001
   208   3      1.6899999999999999                   18.59                   11.83
   209   3                       0      16.899999999999999                   13.52
   210   5      1.6899999999999999                   18.59      15.209999999999999
   211   5                       0      16.899999999999999      16.899999999999999
   212   4      1.6899999999999999                   18.59                   18.59
   213   4                       0      16.899999999999999      20.280000000000001
   214   3      1.6899999999999999                   18.59      21.970000000000002
   215   2                       0      16.899999999999999                   23.66
   216   5      1.6899999999999999                   18.59      25.350000000000001
   217   5                       0      16.899999999999999      27.039999999999999
   218   3      1.6899999999999999                   18.59                   28.73
   219   5                       0      16.899999999999999      30.419999999999998
   220   1      1.6899999999999999                   18.59      32.109999999999999
   221   4                       0      16.899999999999999      33.799999999999997
   222   4      1.6899999999999999                   18.59      35.489999999999995
   223   3                       0      16.899999999999999                   37.18
   224   3      1.6899999999999999                   18.59      38.869999999999997
   225   4                       0      16.899999999999999      40.560000000000002
   226   5      1.6899999999999999                   18.59                   42.25
   227   3                       0      16.899999999999999      43.939999999999998
   228   2      1.6899999999999999                   18.59      45.629999999999995
   229   5                       0      16.899999999999999                   47.32
   230   1      1.6899999999999999                   18.59      49.009999999999998
   231   3                       0      16.899999999999999      50.699999999999996
   232   4      1.6899999999999999                   18.59      52.389999999999993
   233   1                       0      16.899999999999999      54.079999999999998
   234   3      1.6899999999999999                   18.59      55.769999999999996
   235   4                       0      16.899999999999999      57.460000000000001
   236   3      1.6899999999999999                   18.59      59.149999999999999
   237   5                       0      16.899999999999999      60.839999999999996
   238   5      1.6899999999999999                   18.59      62.529999999999994
   239   1                       0      16.899999999999999      64.219999999999999
   240   4      1.6899999999999999                   18.59      65.909999999999997
   241   3                       0      20.280000000000001                       0
   242   4      1.6899999999999999      21.970000000000002      1.6899999999999999
   243   4                       0      20.280000000000001      3.3799999999999999
   244   2      1.6899999999999999      21.970000000000002      5.0700000000000003
   245   4                       0      20.280000000000001      6.7599999999999998
   246   1      1.6899999999999999      21.970000000000002      8.4499999999999993
   247   5                       0      20.280000000000001      10.140000000000001
   248   1      1.6899999999999999      21.970000000000002                   11.83
   249   1                       0      20.280000000000001                   13.52
   250   3      1.6899999999999999      21.970000000000002      15.209999999999999
   251   5                       0      20.280000000000001      16.899999999999999
   252   4      1.6899999999999999      21.970000000000002                   18.59
   253   4                       0      20.280000000000001      20.280000000000001
   254   1      1.6899999999999999      21.970000000000002      21.970000000000002
   255   2                       0      20.280000000000001                   23.66
   256   2      1.6899999999999999      21.970000000000002      25.350000000000001
   257   5                       0      20.280000000000001      27.039999999999999
   258   3      1.6899999999999999      21.970000000000002                   28.73
   259   2                       0      20.280000000000001      30.419999999999998
   260   4      1.6899999999999999      21.970000000000002      32.109999999999999
   261   1                       0      20.280000000000001      33.799999999999997
   262   4      1.6899999999999999      21.970000000000002      35.489999999999995
   263   3                       0      20.280000000000001                   37.18
   264   3      1.6899999999999999      21.970000000000002      38.869999999999997
   265   4                       0      20.280000000000001      40.560000000000002
   266   5      1.6899999999999999      21.970000000000002                   42.25
   267   5                       0      20.280000000000001      43.939999999999998
   268   5      1.6899999999999999      21.970000000000002      45.629999999999995
   269   1                       0      20.280000000000001                   47.32
   270   4      1.6899999999999999      21.970000000000002      49.009999999999998
   271   1                       0      20.280000000000001      50.699999999999996
   272   2      1.6899999999999999      21.970000000000002      52.389999999999993
   273   5                       0      20.280000000000001      54.079999999999998
   274   1      1.6899999999999999      21.970000000000002      55.769999999999996
   275   4                       0      20.280000000000001      57.460000000000001
   276   5      1.6899999999999999      21.970000000000002      59.149999999999999
   277   2                       0      20.280000000000001      60.839999999999996
   278   2      1.6899999999999999      21.970000000000002      62.529999999999994
   279   2                       0      20.280000000000001      64.219999999999999
   280   1      1.6899999999999999      21.970000000000002      65.909999999999997
   281   5                       0                   23.66                       0
   282   5      1.6899999999999999      25.350000000000001      1.6899999999999999
   283   1                       0                   23.66      3.3799999999999999
   284   4      1.6899999999999999      25.350000000000001      5.0700000000000003
   285   4                       0                   23.66      6.7599999999999998
   286   4      1.6899999999999999      25.350000000000001      8.4499999999999993
   287   5                       0                   23.66      10.140000000000001
   288   5      1.6899999999999999      25.350000000000001                   11.83
   289   5                       0                   23.66                   13.52
   290   1      1.6899999999999999      25.350000000000001      15.209999999999999
   291   3                       0                   23.66      16.899999999999999
   292   2      1.6899999999999999      25.350000000000001                   18.59
   293   2                       0                   23.66      20.280000000000001
   294   2      1.6899999999999999      25.350000000000001      21.970000000000002
   295   4                       0                   23.66                   23.66
   296   3      1.6899999999999999      25.350000000000001      25.350000000000001
   297   5                       0                   23.66      27.039999999999999
   298   3      1.6899999999999999      25.350000000000001                   28.73
   299   3                       0                   23.66      30.419999999999998
   300   2      1.6899999999999999      25.350000000000001      32.109999999999999
   301   2                       0                   23.66      33.799999999999997
   302   1      1.6899999999999999      25.350000000000001      35.489999999999995
   303   1                       0                   23.66                   37.18
   304   4      1.6899999999999999      25.350000000000001      38.869999999999997
   305   3                       0                   23.66      40.560000000000002
   306   2      1.6899999999999999      25.350000000000001                   42.25
   307   1                       0                   23.66      43.939999999999998
   308   3      1.6899999999999999      25.350000000000001      45.629999999999995
   309   5                       0                   23.66                   47.32
   310   5      1.6899999999999999      25.350000000000001      49.009999999999998
   311   5                       0                   23.66      50.699999999999996
   312   2      1.6899999999999999      25.350000000000001      52.389999999999993
   313   2                       0                   23.66      54.079999999999998
   314   2      1.6899999999999999      25.350000000000001      55.769999999999996
   315   4                       0                   23.66      57.460000000000001
   316   4      1.6899999999999999      25.350000000000001      59.149999999999999
   317   4                       0                   23.66      60.839999999999996
   318   5      1.6899999999999999      25.350000000000001      62.529999999999994
   319   5                       0                   23.66      64.219999999999999
   320   3      1.6899999999999999      25.350000000000001      65.909999999999997
   321   4                       0      27.039999999999999                       0
   322   2      1.6899999999999999                   28.73      1.6899999999999999
   323   5                       0      27.039999999999999      3.3799999999999999
   324   1      1.6899999999999999                   28.73      5.0700000000000003
   325   4                       0      27.039999999999999      6.7599999999999998
   326   1      1.6899999999999999                   28.73      8.4499999999999993
   327   4                       0      27.039999999999999      10.140000000000001
   328   3      1.6899999999999999                   28.73                   11.83
   329   4                       0      27.039999999999999                   13.52
   330   2      1.6899999999999999                   28.73      15.209999999999999
   331   2                       0      27.039999999999999      16.899999999999999
   332   3      1.6899999999999999                   28.73                   18.59
   333   3                       0      27.039999999999999      20.280000000000001
   334   5      1.6899999999999999                   28.73      21.970000000000002
   335   4                       0      27.039999999999999                   23.66
   336   2      1.6899999999999999                   28.73      25.350000000000001
   337   1                       0      27.039999999999999      27.039999999999999
   338   4      1.6899999999999999                   28.73                   28.73
   339   3                       0      27.039999999999999      30.419999999999998
   340   5      1.6899999999999999                   28.73      32.109999999999999
   341   4                       0      27.039999999999999      33.799999999999997
   342   4      1.6899999999999999                   28.73      35.489999999999995
   343   2                       0      27.039999999999999                   37.18
   344   5      1.6899999999999999                   28.73      38.869999999999997
   345   4                       0      27.039999999999999      40.560000000000002
   346   1      1.6899999999999999                   28.73                   42.25
   347   1                       0      27.039999999999999      43.939999999999998
   348   3      1.6899999999999999                   28.73      45.629999999999995
   349   3                       0      27.039999999999999                   47.32
   350   2      1.6899999999999999                   28.73      49.009999999999998
   351   1                       0      27.039999999999999      50.699999999999996
   352   5      1.6899999999999999                   28.73      52.389999999999993
   353   5                       0      27.039999999999999      54.079999999999998
   354   5      1.6899999999999999                   28.73      55.769999999999996
   355   4                       0      27.039999999999999      57.460000000000001
   356   1      1.6899999999999999                   28.73      59.149999999999999
   357   2                       0      27.039999999999999      60.839999999999996
   358   2      1.6899999999999999                   28.73      62.529999999999994
   359   3                       0      27.039999999999999      64.219999999999999