(written by ASE)

16000 atoms
5 atom types

0.0                      68  xlo xhi
0.0                      68  ylo yhi
0.0                      68  zlo zhi

Atoms # atomic

     1   3                       0                       0                       0
     2   3                     1.7                     1.7                     1.7
     3   1                       0                       0      3.3999999999999999
     4   3                     1.7                     1.7      5.0999999999999996
     5   5                       0                       0      6.7999999999999998
     6   2                     1.7                     1.7                     8.5
     7   3                       0                       0      10.199999999999999
     8   3                     1.7                     1.7      11.899999999999999
     9   1                       0                       0                    13.6
    10   3                     1.7                     1.7      15.299999999999999
    11   2                       0                       0                      17
    12   3                     1.7                     1.7      18.699999999999999
    13   5                       0                       0      20.399999999999999
    14   5                     1.7                     1.7      22.099999999999998
    15   2                       0                       0      23.800000000000001
    16   1                     1.7                     1.7                    25.5
    17   2                       0                       0      27.199999999999999
    18   1                     1.7                     1.7      28.899999999999999
    19   1                       0                       0      30.599999999999998
    20   5                     1.7                     1.7      32.299999999999997
    21   4                       0                       0                      34
    22   5                     1.7                     1.7      35.700000000000003
    23   5                       0                       0      37.399999999999999
    24   1                     1.7                     1.7      39.100000000000001
    25   1                       0                       0      40.799999999999997
    26   1                     1.7                     1.7                    42.5
    27   2                       0                       0      44.199999999999996
    28   2                     1.7                     1.7      45.899999999999999
    29   3                       0                       0      47.600000000000001
    30   3                     1.7                     1.7      49.300000000000004
    31   1                       0                       0                      51
    32   3                     1.7                     1.7      52.700000000000003
    33   4                       0                       0      54.399999999999999
    34   3                     1.7                     1.7      56.100000000000001
    35   2                       0                       0      57.799999999999997
    36   3                     1.7                     1.7                    59.5
    37   1                       0                       0      61.199999999999996
    38   1                     1.7                     1.7      62.899999999999999
    39   2                       0                       0      64.599999999999994
    40   4                     1.7                     1.7      66.299999999999997
    41   2                       0      3.3999999999999999                       0
    42   5                     1.7      5.0999999999999996                     1.7
    43   3                       0      3.3999999999999999      3.3999999999999999
    44   1                     1.7      5.0999999999999996      5.0999999999999996
    45   1                       0      3.3999999999999999      6.7999999999999998
    46   4                     1.7      5.0999999999999996                     8.5
    47   4                       0      3.3999999999999999      10.199999999999999
    48   4                     1.7      5.0999999999999996      11.899999999999999
    49   3                       0      3.3999999999999999                    13.6
    50   4                     1.7      5.0999999999999996      15.299999999999999
    51   2                       0      3.3999999999999999                      17
    52   3                     1.7      5.0999999999999996      18.699999999999999
    53   4                       0      3.3999999999999999      20.399999999999999
    54   1                     1.7      5.0999999999999996      22.099999999999998
    55   5                       0      3.3999999999999999      23.800000000000001
    56   3                     1.7      5.0999999999999996                    25.5
    57   2                       0      3.3999999999999999      27.199999999999999
    58   2                     1.7      5.0999999999999996      28.899999999999999
    59   1                       0      3.3999999999999999      30.599999999999998
    60   4                     1.7      5.0999999999999996      32.299999999999997
    61   2                       0      3.3999999999999999                      34
    62   2                     1.7      5.0999999999999996      35.700000000000003
    63   2                       0      3.3999999999999999      37.399999999999999
    64   3                     1.7      5.0999999999999996      39.100000000000001
    65   5                       0      3.3999999999999999      40.799999999999997
    66   3                     1.7      5.0999999999999996                    42.5
    67   3                       0      3.3999999999999999      44.199999999999996
    68   5                     1.7      5.0999999999999996      45.899999999999999
    69   4                       0      3.3999999999999999      47.600000000000001
    70   2                     1.7      5.0999999999999996      49.300000000000004
    71   5                       0      3.3999999999999999                      51
    72   4                     1.7      5.0999999999999996      52.700000000000003
    73   4                       0      3.3999999999999999      54.399999999999999
    74   3                     1.7      5.0999999999999996      56.100000000000001
    75   5                       0      3.3999999999999999      57.799999999999997
    76   2                     1.7      5.0999999999999996                    59.5
    77   5                       0      3.3999999999999999      61.199999999999996
    78   2                     1.7      5.0999999999999996      62.899999999999999
    79   4                       0      3.3999999999999999      64.599999999999994
    80   2                     1.7      5.0999999999999996      66.299999999999997
    81   2                       0      6.7999999999999998                       0
    82   1                     1.7                     8.5                     1.7
    83   1                       0      6.7999999999999998      3.3999999999999999
    84   5                     1.7                     8.5      5.0999999999999996
    85   3                       0      6.7999999999999998      6.7999999999999998
    86   2                     1.7                     8.5                     8.5
    87   2                       0      6.7999999999999998      10.199999999999999
    88   4                     1.7                     8.5      11.899999999999999
    89   3                       0      6.7999999999999998                    13.6
    90   1                     1.7                     8.5      15.299999999999999
    91   5                       0      6.7999999999999998                      17
    92   2                     1.7                     8.5      18.699999999999999
    93   3                       0      6.7999999999999998      20.399999999999999
    94   4                     1.7                     8.5      22.099999999999998
    95   5                       0      6.7999999999999998      23.800000000000001
    96   5                     1.7                     8.5                    25.5
    97   4                       0      6.7999999999999998      27.199999999999999
    98   5                     1.7                     8.5      28.899999999999999
    99   2                       0      6.7999999999999998      30.599999999999998
   100   5                     1.7                     8.5      32.299999999999997
   101   4                       0      6.7999999999999998                      34
   102   5                     1.7                     8.5      35.700000000000003
   103   4                       0      6.7999999999999998      37.399999999999999
   104   5                     1.7                     8.5      39.100000000000001
   105   5                       0      6.7999999999999998      40.799999999999997
   106   5                     1.7                     8.5                    42.5
   107   3                       0      6.7999999999999998      44.199999999999996
   108   2                     1.7                     8.5      45.899999999999999
   109   3                       0      6.7999999999999998      47.600000000000001
   110   1                     1.7                     8.5      49.300000000000004
   111   4                       0      6.7999999999999998                      51
   112   5                     1.7                     8.5      52.700000000000003
   113   1                       0      6.7999999999999998      54.399999999999999
   114   4                     1.7                     8.5      56.100000000000001
   115   4                       0      6.7999999999999998      57.799999999999997
   116   1                     1.7                     8.5                    59.5
   117   5                       0      6.7999999999999998      61.199999999999996
   118   2                     1.7                     8.5      62.899999999999999
   119   1                       0      6.7999999999999998      64.599999999999994
   120   1                     1.7                     8.5      66.299999999999997
   121   1                       0      10.199999999999999                       0
   122   1                     1.7      11.899999999999999                     1.7
   123   2                       0      10.199999999999999      3.3999999999999999
   124   2                     1.7      11.899999999999999      5.0999999999999996
   125   5                       0      10.199999999999999      6.7999999999999998
   126   3                     1.7      11.899999999999999                     8.5
   127   3                       0      10.199999999999999      10.199999999999999
   128   2                     1.7      11.899999999999999      11.899999999999999
   129   3                       0      10.199999999999999                    13.6
   130   4                     1.7      11.899999999999999      15.299999999999999
   131   5                       0      10.199999999999999                      17
   132   3                     1.7      11.899999999999999      18.699999999999999
   133   4                       0      10.199999999999999      20.399999999999999
   134   1                     1.7      11.899999999999999      22.099999999999998
   135   5                       0      10.199999999999999      23.800000000000001
   136   3                     1.7      11.899999999999999                    25.5
   137   5                       0      10.199999999999999      27.199999999999999
   138   2                     1.7      11.899999999999999      28.899999999999999
   139   2                       0      10.199999999999999      30.599999999999998
   140   4                     1.7      11.899999999999999      32.299999999999997
   141   5                       0      10.199999999999999                      34
   142   1                     1.7      11.899999999999999      35.700000000000003
   143   4                       0      10.199999999999999      37.399999999999999
   144   5                     1.7      11.899999999999999      39.100000000000001
   145   4                       0      10.199999999999999      40.799999999999997
   146   1                     1.7      11.899999999999999                    42.5
   147   4                       0      10.199999999999999      44.199999999999996
   148   2                     1.7      11.899999999999999      45.899999999999999
   149   5                       0      10.199999999999999      47.600000000000001
   150   5                     1.7      11.899999999999999      49.300000000000004
   151   5                       0      10.199999999999999                      51
   152   2                     1.7      11.899999999999999      52.700000000000003
   153   2                       0      10.199999999999999      54.399999999999999
   154   4                     1.7      11.899999999999999      56.100000000000001
   155   2                       0      10.199999999999999      57.799999999999997
   156   3                     1.7      11.899999999999999                    59.5
   157   1                       0      10.199999999999999      61.199999999999996
   158   2                     1.7      11.899999999999999      62.899999999999999
   159   3                       0      10.199999999999999      64.599999999999994
   160   4                     1.7      11.899999999999999      66.299999999999997
   161   2                       0                    13.6                       0
   162   5                     1.7      15.299999999999999                     1.7
   163   1                       0                    13.6      3.3999999999999999
   164   2                     1.7      15.299999999999999      5.0999999999999996
   165   3                       0                    13.6      6.7999999999999998
   166   1                     1.7      15.299999999999999                     8.5
   167   3                       0                    13.6      10.199999999999999
   168   1                     1.7      15.299999999999999      11.899999999999999
   169   3                       0                    13.6                    13.6
   170   4                     1.7      15.299999999999999      15.299999999999999
   171   3                       0                    13.6                      17
   172   3                     1.7      15.299999999999999      18.699999999999999
   173   2                       0                    13.6      20.399999999999999
   174   4                     1.7      15.299999999999999      22.099999999999998
   175   5                       0                    13.6      23.800000000000001
   176   3                     1.7      15.299999999999999                    25.5
   177   1                       0                    13.6      27.199999999999999
   178   5                     1.7      15.299999999999999      28.899999999999999
   179   2                       0                    13.6      30.599999999999998
   180   2                     1.7      15.299999999999999      32.299999999999997
   181   5                       0                    13.6                      34
   182   5                     1.7      15.299999999999999      35.700000000000003
   183   3                       0                    13.6      37.399999999999999
   184   2                     1.7      15.299999999999999      39.100000000000001
   185   3                       0                    13.6      40.799999999999997
   186   5                     1.7      15.299999999999999                    42.5
   187   2                       0                    13.6      44.199999999999996
   188   1                     1.7      15.299999999999999      45.899999999999999
   189   5                       0                    13.6      47.600000000000001
   190   1                     1.7      15.299999999999999      49.300000000000004
   191   4                       0                    13.6                      51
   192   5                     1.7      15.299999999999999      52.700000000000003
   193   5                       0                    13.6      54.399999999999999
   194   1                     1.7      15.299999999999999      56.100000000000001
   195   3                       0                    13.6      57.799999999999997
   196   5                     1.7      15.299999999999999                    59.5
   197   3                       0                    13.6      61.199999999999996
   198   2                     1.7      15.299999999999999      62.899999999999999
   199   1                       0                    13.6      64.599999999999994
   200   3                     1.7      15.299999999999999      66.299999999999997
   201   1                       0                      17                       0
   202   2                     1.7      18.699999999999999                     1.7
   203   4                       0                      17      3.3999999999999999
   204   3                     1.7      18.699999999999999      5.0999999999999996
   205   5                       0                      17      6.7999999999999998
   206   3                     1.7      18.699999999999999                     8.5
   207   4                       0                      17      10.199999999999999
   208   4                     1.7      18.699999999999999      11.899999999999999
   209   2                       0                      17                    13.6
   210   5                     1.7      18.699999999999999      15.299999999999999
   211   5                       0                      17                      17
   212   3                     1.7      18.699999999999999      18.699999999999999
   213   4                       0                      17      20.399999999999999
   214   1                     1.7      18.699999999999999      22.099999999999998
   215   5                       0                      17      23.800000000000001
   216   1                     1.7      18.699999999999999                    25.5
   217   2                       0                      17      27.199999999999999
   218   5                     1.7      18.699999999999999      28.899999999999999
   219   1                       0                      17      30.599999999999998
   220   2                     1.7      18.699999999999999      32.299999999999997
   221   4                       0                      17                      34
   222   1                     1.7      18.699999999999999      35.700000000000003
   223   2                       0                      17      37.399999999999999
   224   5                     1.7      18.699999999999999      39.100000000000001
   225   3                       0                      17      40.799999999999997
   226   1                     1.7      18.699999999999999                    42.5
   227   1                       0                      17      44.199999999999996
   228   5                     1.7      18.699999999999999      45.899999999999999
   229   5                       0                      17      47.600000000000001
   230   2                     1.7      18.699999999999999      49.300000000000004
   231   1                       0                      17                      51
   232   5                     1.7      18.699999999999999      52.700000000000003
   233   5                       0                      17      54.399999999999999
   234   3                     1.7      18.699999999999999      56.100000000000001
   235   1                       0                      17      57.799999999999997
   236   1                     1.7      18.699999999999999                    59.5
   237   2                       0                      17      61.199999999999996
   238   5                     1.7      18.699999999999999      62.899999999999999
   239   1                       0                      17      64.599999999999994
   240   3                     1.7      18.699999999999999      66.299999999999997
   241   4                       0      20.399999999999999                       0
   242   3                     1.7      22.099999999999998                     1.7
   243   5                       0      20.399999999999999      3.3999999999999999
   244   4                     1.7      22.099999999999998      5.0999999999999996
   245   2                       0      20.399999999999999      6.7999999999999998
   246   2                     1.7      22.099999999999998                     8.5
   247   2                       0      20.399999999999999      10.199999999999999
   248   3                     1.7      22.099999999999998      11.899999999999999
   249   4                       0      20.399999999999999                    13.6
   250   3                     1.7      22.099999999999998      15.299999999999999
   251   1                       0      20.399999999999999                      17
   252   4                     1.7      22.099999999999998      18.699999999999999
   253   3                       0      20.399999999999999      20.399999999999999
   254   5                     1.7      22.099999999999998      22.099999999999998
   255   5                       0      20.399999999999999      23.800000000000001
   256   1                     1.7      22.099999999999998                    25.5
   257   5                       0      20.399999999999999      27.199999999999999
   258   3                     1.7      22.099999999999998      28.899999999999999
   259   4                       0      20.399999999999999      30.599999999999998
   260   3                     1.7      22.099999999999998      32.299999999999997
   261   2                       0      20.399999999999999                      34
   262   3                     1.7      22.099999999999998      35.700000000000003
   263   5                       0      20.399999999999999      37.399999999999999
   264   2                     1.7      22.099999999999998      39.100000000000001
   265   1                       0      20.399999999999999      40.799999999999997
   266   5                     1.7      22.099999999999998                    42.5
   267   4                       0      20.399999999999999      44.199999999999996
   268   2                     1.7      22.099999999999998      45.899999999999999
   269   1                       0      20.399999999999999      47.600000000000001
   270   3                     1.7      22.099999999999998      49.300000000000004
   271   2                       0      20.399999999999999                      51
   272   1                     1.7      22.099999999999998      52.700000000000003
   273   4                       0      20.399999999999999      54.399999999999999
   274   3                     1.7      22.099999999999998      56.100000000000001
   275   3                       0      20.399999999999999      57.799999999999997
   276   3                     1.7      22.099999999999998                    59.5
   277   5                       0      20.399999999999999      61.199999999999996
   278   2                     1.7      22.099999999999998      62.899999999999999
   279   1                       0      20.399999999999999      64.599999999999994
   280   3                     1.7      22.099999999999998      66.299999999999997
   281   3                       0      23.800000000000001                       0
   282   1                     1.7                    25.5                     1.7
   283   4                       0      23.800000000000001      3.3999999999999999
   284   3                     1.7                    25.5      5.0999999999999996
   285   4                       0      23.800000000000001      6.7999999999999998
   286   3                     1.7                    25.5                     8.5
   287   3                       0      23.800000000000001      10.199999999999999
   288   5                     1.7                    25.5      11.899999999999999
   289   4                       0      23.800000000000001                    13.6
   290   3                     1.7                    25.5      15.299999999999999
   291   4                       0      23.800000000000001                      17
   292   1                     1.7                    25.5      18.699999999999999
   293   2                       0      23.800000000000001      20.399999999999999
   294   3                     1.7                    25.5      22.099999999999998
   295   5                       0      23.800000000000001      23.800000000000001
   296   1                     1.7                    25.5                    25.5
   297   1                       0      23.800000000000001      27.199999999999999
   298   4                     1.7                    25.5      28.899999999999999
   299   4                       0      23.800000000000001      30.599999999999998
   300   4                     1.7                    25.5      32.299999999999997
   301   5                       0      23.800000000000001                      34
   302   2                     1.7                    25.5      35.700000000000003
   303   2                       0      23.800000000000001      37.399999999999999
   304   2                     1.7                    25.5      39.100000000000001
   305   4                       0      23.800000000000001      40.799999999999997
   306   4                     1.7                    25.5                    42.5
   307   4                       0      23.800000000000001      44.199999999999996
   308   3                     1.7                    25.5      45.899999999999999
   309   3                       0      23.800000000000001      47.600000000000001
   310   3                     1.7                    25.5      49.300000000000004
   311   4                       0      23.800000000000001                      51
   312   2                     1.7                    25.5      52.700000000000003
   313   5                       0      23.800000000000001      54.399999999999999
   314   1                     1.7                    25.5      56.100000000000001
   315   4                       0      23.800000000000001      57.799999999999997
   316   1                     1.7                    25.5                    59.5
   317   5                       0      23.800000000000001      61.199999999999996
   318   5                     1.7                    25.5      62.899999999999999
   319   4                       0      23.800000000000001      64.599999999999994
   320   2                     1.7                    25.5      66.299999999999997
   321   4                       0      27.199999999999999                       0
   322   1                     1.7      28.899999999999999                     1.7
   323   4                       0      27.199999999999999      3.3999999999999999
   324   2                     1.7      28.899999999999999      5.0999999999999996
   325   5                       0      27.199999999999999      6.7999999999999998
   326   2                     1.7      28.899999999999999                     8.5
   327   3                       0      27.199999999999999      10.199999999999999
   328   1                     1.7      28.899999999999999      11.899999999999999
   329   5                       0      27.199999999999999                    13.6
   330   2                     1.7      28.899999999999999      15.299999999999999
   331   4                       0      27.199999999999999                      17
   332   1                     1.7      28.899999999999999      18.699999999999999
   333   1                       0      27.199999999999999      20.399999999999999
   334   1                     1.7      28.899999999999999      22.099999999999998
   335   1                       0      27.199999999999999      23.800000000000001
   336   2                     1.7      28.899999999999999                    25.5
   337   4                       0      27.199999999999999      27.199999999999999
   338   2                     1.7      28.899999999999999      28.899999999999999
   339   4                       0      27.199999999999999      30.599999999999998
   340   1                     1.7      28.899999999999999      32.299999999999997
   341   2                       0      27.199999999999999                      34
   342   1                     1.7      28.899999999999999      35.700000000000003
   343   1                       0      27.199999999999999      37.399999999999999
   344   2                     1.7      28.899999999999999      39.100000000000001
   345   2                       0      27.199999999999999      40.799999999999997
   346   2                     1.7      28.899999999999999                    42.5
   347   2                       0      27.199999999999999      44.199999999999996
   348   5                     1.7      28.899999999999999      45.899999999999999
   349   3                       0      27.199999999999999      47.600000000000001
   350   4                     1.7      28.899999999999999      49.300000000000004
   351   3                       0      27.199999999999999                      51
   352   1                     1.7      28.899999999999999      52.700000000000003
   353   4                       0      27.199999999999999      54.399999999999999
   354   1                     1.7      28.899999999999999      56.100000000000001
   355   4                       0      27.199999999999999      57.799999999999997
   356   4                     1.7      28.899999999999999                    59.5
   357   3                       0      27.199999999999999      61.199999999999996
   358   1                     1.7      28.899999999999999      62.899999999999999
   359   3                       0      27.199999999999999      64.599999999999994