(written by ASE)

16000 atoms
5 atom types

0.0      68.600000000000009  xlo xhi
0.0      68.600000000000009  ylo yhi
0.0      68.600000000000009  zlo zhi

Atoms # atomic

     1   1                       0                       0                       0
     2   2      1.7150000000000001      1.7150000000000001      1.7150000000000001
     3   3                       0                       0      3.4300000000000002
     4   4      1.7150000000000001      1.7150000000000001      5.1450000000000005
     5   4                       0                       0      6.8600000000000003
     6   4      1.7150000000000001      1.7150000000000001      8.5750000000000011
     7   4                       0                       0      10.290000000000001
     8   1      1.7150000000000001      1.7150000000000001      12.005000000000001
     9   1                       0                       0      13.720000000000001
    10   1      1.7150000000000001      1.7150000000000001                  15.435
    11   1                       0                       0      17.150000000000002
    12   3      1.7150000000000001      1.7150000000000001      18.865000000000002
    13   3                       0                       0      20.580000000000002
    14   2      1.7150000000000001      1.7150000000000001      22.295000000000002
    15   2                       0                       0      24.010000000000002
    16   3      1.7150000000000001      1.7150000000000001      25.725000000000001
    17   4                       0                       0      27.440000000000001
    18   4      1.7150000000000001      1.7150000000000001      29.155000000000001
    19   3                       0                       0      30.870000000000001
    20   3      1.7150000000000001      1.7150000000000001      32.585000000000001
    21   3                       0                       0      34.300000000000004
    22   1      1.7150000000000001      1.7150000000000001      36.015000000000008
    23   1                       0                       0      37.730000000000004
    24   3      1.7150000000000001      1.7150000000000001      39.445000000000007
    25   4                       0                       0      41.160000000000004
    26   5      1.7150000000000001      1.7150000000000001      42.875000000000007
    27   1                       0                       0      44.590000000000003
    28   3      1.7150000000000001      1.7150000000000001      46.305000000000007
    29   2                       0                       0      48.020000000000003
    30   2      1.7150000000000001      1.7150000000000001      49.735000000000007
    31   3                       0                       0      51.450000000000003
    32   5      1.7150000000000001      1.7150000000000001      53.165000000000006
    33   1                       0                       0      54.880000000000003
    34   1      1.7150000000000001      1.7150000000000001      56.595000000000006
    35   1                       0                       0      58.310000000000002
    36   1      1.7150000000000001      1.7150000000000001      60.025000000000006
    37   4                       0                       0      61.740000000000002
    38   1      1.7150000000000001      1.7150000000000001      63.455000000000005
    39   5                       0                       0      65.170000000000002
    40   2      1.7150000000000001      1.7150000000000001      66.885000000000005
    41   1                       0      3.4300000000000002                       0
    42   1      1.7150000000000001      5.1450000000000005      1.7150000000000001
    43   2                       0      3.4300000000000002      3.4300000000000002
    44   5      1.7150000000000001      5.1450000000000005      5.1450000000000005
    45   3                       0      3.4300000000000002      6.8600000000000003
    46   4      1.7150000000000001      5.1450000000000005      8.5750000000000011
    47   5                       0      3.4300000000000002      10.290000000000001
    48   4      1.7150000000000001      5.1450000000000005      12.005000000000001
    49   2                       0      3.4300000000000002      13.720000000000001
    50   2      1.7150000000000001      5.1450000000000005                  15.435
    51   3                       0      3.4300000000000002      17.150000000000002
    52   3      1.7150000000000001      5.1450000000000005      18.865000000000002
    53   2                       0      3.4300000000000002      20.580000000000002
    54   5      1.7150000000000001      5.1450000000000005      22.295000000000002
    55   5                       0      3.4300000000000002      24.010000000000002
    56   3      1.7150000000000001      5.1450000000000005      25.725000000000001
    57   3                       0      3.4300000000000002      27.440000000000001
    58   1      1.7150000000000001      5.1450000000000005      29.155000000000001
    59   1                       0      3.4300000000000002      30.870000000000001
    60   5      1.7150000000000001      5.1450000000000005      32.585000000000001
    61   3                       0      3.4300000000000002      34.300000000000004
    62   5      1.7150000000000001      5.1450000000000005      36.015000000000008
    63   1                       0      3.4300000000000002      37.730000000000004
    64   5      1.7150000000000001      5.1450000000000005      39.445000000000007
    65   2                       0      3.4300000000000002      41.160000000000004
    66   5      1.7150000000000001      5.1450000000000005      42.875000000000007
    67   3                       0      3.4300000000000002      44.590000000000003
    68   2      1.7150000000000001      5.1450000000000005      46.305000000000007
    69   5                       0      3.4300000000000002      48.020000000000003
    70   3      1.7150000000000001      5.1450000000000005      49.735000000000007
    71   5                       0      3.4300000000000002      51.450000000000003
    72   3      1.7150000000000001      5.1450000000000005      53.165000000000006
    73   1                       0      3.4300000000000002      54.880000000000003
    74   3      1.7150000000000001      5.1450000000000005      56.595000000000006
    75   1                       0      3.4300000000000002      58.310000000000002
    76   3      1.7150000000000001      5.1450000000000005      60.025000000000006
    77   2                       0      3.4300000000000002      61.740000000000002
    78   4      1.7150000000000001      5.1450000000000005      63.455000000000005
    79   5                       0      3.4300000000000002      65.170000000000002
    80   3      1.7150000000000001      5.1450000000000005      66.885000000000005
    81   3                       0      6.8600000000000003                       0
    82   5      1.7150000000000001      8.5750000000000011      1.7150000000000001
    83   5                       0      6.8600000000000003      3.4300000000000002
    84   1      1.7150000000000001      8.5750000000000011      5.1450000000000005
    85   2                       0      6.8600000000000003      6.8600000000000003
    86   2      1.7150000000000001      8.5750000000000011      8.5750000000000011
    87   3                       0      6.8600000000000003      10.290000000000001
    88   1      1.7150000000000001      8.5750000000000011      12.005000000000001
    89   2                       0      6.8600000000000003      13.720000000000001
    90   2      1.7150000000000001      8.5750000000000011                  15.435
    91   4                       0      6.8600000000000003      17.150000000000002
    92   2      1.7150000000000001      8.5750000000000011      18.865000000000002
    93   3                       0      6.8600000000000003      20.580000000000002
    94   3      1.7150000000000001      8.5750000000000011      22.295000000000002
    95   4                       0      6.8600000000000003      24.010000000000002
    96   5      1.7150000000000001      8.5750000000000011      25.725000000000001
    97   1                       0      6.8600000000000003      27.440000000000001
    98   3      1.7150000000000001      8.5750000000000011      29.155000000000001
    99   2                       0      6.8600000000000003      30.870000000000001
   100   3      1.7150000000000001      8.5750000000000011      32.585000000000001
   101   1                       0      6.8600000000000003      34.300000000000004
   102   1      1.7150000000000001      8.5750000000000011      36.015000000000008
   103   4                       0      6.8600000000000003      37.730000000000004
   104   4      1.7150000000000001      8.5750000000000011      39.445000000000007
   105   4                       0      6.8600000000000003      41.160000000000004
   106   1      1.7150000000000001      8.5750000000000011      42.875000000000007
   107   1                       0      6.8600000000000003      44.590000000000003
   108   4      1.7150000000000001      8.5750000000000011      46.305000000000007
   109   5                       0      6.8600000000000003      48.020000000000003
   110   2      1.7150000000000001      8.5750000000000011      49.735000000000007
   111   4                       0      6.8600000000000003      51.450000000000003
   112   3      1.7150000000000001      8.5750000000000011      53.165000000000006
   113   4                       0      6.8600000000000003      54.880000000000003
   114   3      1.7150000000000001      8.5750000000000011      56.595000000000006
   115   5                       0      6.8600000000000003      58.310000000000002
   116   1      1.7150000000000001      8.5750000000000011      60.025000000000006
   117   5                       0      6.8600000000000003      61.740000000000002
   118   5      1.7150000000000001      8.5750000000000011      63.455000000000005
   119   5                       0      6.8600000000000003      65.170000000000002
   120   5      1.7150000000000001      8.5750000000000011      66.885000000000005
   121   5                       0      10.290000000000001                       0
   122   4      1.7150000000000001      12.005000000000001      1.7150000000000001
   123   1                       0      10.290000000000001      3.4300000000000002
   124   3      1.7150000000000001      12.005000000000001      5.1450000000000005
   125   2                       0      10.290000000000001      6.8600000000000003
   126   4      1.7150000000000001      12.005000000000001      8.5750000000000011
   127   4                       0      10.290000000000001      10.290000000000001
   128   4      1.7150000000000001      12.005000000000001      12.005000000000001
   129   4                       0      10.290000000000001      13.720000000000001
   130   2      1.7150000000000001      12.005000000000001                  15.435
   131   2                       0      10.290000000000001      17.150000000000002
   132   5      1.7150000000000001      12.005000000000001      18.865000000000002
   133   3                       0      10.290000000000001      20.580000000000002
   134   2      1.7150000000000001      12.005000000000001      22.295000000000002
   135   5                       0      10.290000000000001      24.010000000000002
   136   1      1.7150000000000001      12.005000000000001      25.725000000000001
   137   2                       0      10.290000000000001      27.440000000000001
   138   4      1.7150000000000001      12.005000000000001      29.155000000000001
   139   5                       0      10.290000000000001      30.870000000000001
   140   3      1.7150000000000001      12.005000000000001      32.585000000000001
   141   5                       0      10.290000000000001      34.300000000000004
   142   1      1.7150000000000001      12.005000000000001      36.015000000000008
   143   1                       0      10.290000000000001      37.730000000000004
   144   5      1.7150000000000001      12.005000000000001      39.445000000000007
   145   2                       0      10.290000000000001      41.160000000000004
   146   5      1.7150000000000001      12.005000000000001      42.875000000000007
   147   3                       0      10.290000000000001      44.590000000000003
   148   2      1.7150000000000001      12.005000000000001      46.305000000000007
   149   5                       0      10.290000000000001      48.020000000000003
   150   4      1.7150000000000001      12.005000000000001      49.735000000000007
   151   3                       0      10.290000000000001      51.450000000000003
   152   3      1.7150000000000001      12.005000000000001      53.165000000000006
   153   4                       0      10.290000000000001      54.880000000000003
   154   4      1.7150000000000001      12.005000000000001      56.595000000000006
   155   1                       0      10.290000000000001      58.310000000000002
   156   1      1.7150000000000001      12.005000000000001      60.025000000000006
   157   4                       0      10.290000000000001      61.740000000000002
   158   5      1.7150000000000001      12.005000000000001      63.455000000000005
   159   3                       0      10.290000000000001      65.170000000000002
   160   5      1.7150000000000001      12.005000000000001      66.885000000000005
   161   4                       0      13.720000000000001                       0
   162   1      1.7150000000000001                  15.435      1.7150000000000001
   163   3                       0      13.720000000000001      3.4300000000000002
   164   5      1.7150000000000001                  15.435      5.1450000000000005
   165   4                       0      13.720000000000001      6.8600000000000003
   166   5      1.7150000000000001                  15.435      8.5750000000000011
   167   5                       0      13.720000000000001      10.290000000000001
   168   2      1.7150000000000001                  15.435      12.005000000000001
   169   4                       0      13.720000000000001      13.720000000000001
   170   3      1.7150000000000001                  15.435                  15.435
   171   1                       0      13.720000000000001      17.150000000000002
   172   1      1.7150000000000001                  15.435      18.865000000000002
   173   3                       0      13.720000000000001      20.580000000000002
   174   4      1.7150000000000001                  15.435      22.295000000000002
   175   3                       0      13.720000000000001      24.010000000000002
   176   2      1.7150000000000001                  15.435      25.725000000000001
   177   1                       0      13.720000000000001      27.440000000000001
   178   1      1.7150000000000001                  15.435      29.155000000000001
   179   2                       0      13.720000000000001      30.870000000000001
   180   5      1.7150000000000001                  15.435      32.585000000000001
   181   3                       0      13.720000000000001      34.300000000000004
   182   4      1.7150000000000001                  15.435      36.015000000000008
   183   5                       0      13.720000000000001      37.730000000000004
   184   4      1.7150000000000001                  15.435      39.445000000000007
   185   1                       0      13.720000000000001      41.160000000000004
   186   5      1.7150000000000001                  15.435      42.875000000000007
   187   1                       0      13.720000000000001      44.590000000000003
   188   2      1.7150000000000001                  15.435      46.305000000000007
   189   4                       0      13.720000000000001      48.020000000000003
   190   3      1.7150000000000001                  15.435      49.735000000000007
   191   5                       0      13.720000000000001      51.450000000000003
   192   1      1.7150000000000001                  15.435      53.165000000000006
   193   3                       0      13.720000000000001      54.880000000000003
   194   4      1.7150000000000001                  15.435      56.595000000000006
   195   4                       0      13.720000000000001      58.310000000000002
   196   4      1.7150000000000001                  15.435      60.025000000000006
   197   1                       0      13.720000000000001      61.740000000000002
   198   1      1.7150000000000001                  15.435      63.455000000000005
   199   5                       0      13.720000000000001      65.170000000000002
   200   3      1.7150000000000001                  15.435      66.885000000000005
   201   2                       0      17.150000000000002                       0
   202   2      1.7150000000000001      18.865000000000002      1.7150000000000001
   203   3                       0      17.150000000000002      3.4300000000000002
   204   4      1.7150000000000001      18.865000000000002      5.1450000000000005
   205   3                       0      17.150000000000002      6.8600000000000003
   206   2      1.7150000000000001      18.865000000000002      8.5750000000000011
   207   5                       0      17.150000000000002      10.290000000000001
   208   1      1.7150000000000001      18.865000000000002      12.005000000000001
   209   1                       0      17.150000000000002      13.720000000000001
   210   5      1.7150000000000001      18.865000000000002                  15.435
   211   5                       0      17.150000000000002      17.150000000000002
   212   5      1.7150000000000001      18.865000000000002      18.865000000000002
   213   2                       0      17.150000000000002      20.580000000000002
   214   2      1.7150000000000001      18.865000000000002      22.295000000000002
   215   3                       0      17.150000000000002      24.010000000000002
   216   4      1.7150000000000001      18.865000000000002      25.725000000000001
   217   1                       0      17.150000000000002      27.440000000000001
   218   4      1.7150000000000001      18.865000000000002      29.155000000000001
   219   3                       0      17.150000000000002      30.870000000000001
   220   4      1.7150000000000001      18.865000000000002      32.585000000000001
   221   4                       0      17.150000000000002      34.300000000000004
   222   1      1.7150000000000001      18.865000000000002      36.015000000000008
   223   1                       0      17.150000000000002      37.730000000000004
   224   3      1.7150000000000001      18.865000000000002      39.445000000000007
   225   1                       0      17.150000000000002      41.160000000000004
   226   2      1.7150000000000001      18.865000000000002      42.875000000000007
   227   1                       0      17.150000000000002      44.590000000000003
   228   3      1.7150000000000001      18.865000000000002      46.305000000000007
   229   4                       0      17.150000000000002      48.020000000000003
   230   4      1.7150000000000001      18.865000000000002      49.735000000000007
   231   5                       0      17.150000000000002      51.450000000000003
   232   3      1.7150000000000001      18.865000000000002      53.165000000000006
   233   5                       0      17.150000000000002      54.880000000000003
   234   2      1.7150000000000001      18.865000000000002      56.595000000000006
   235   2                       0      17.150000000000002      58.310000000000002
   236   1      1.7150000000000001      18.865000000000002      60.025000000000006
   237   2                       0      17.150000000000002      61.740000000000002
   238   3      1.7150000000000001      18.865000000000002      63.455000000000005
   239   2                       0      17.150000000000002      65.170000000000002
   240   2      1.7150000000000001      18.865000000000002      66.885000000000005
   241   1                       0      20.580000000000002                       0
   242   1      1.7150000000000001      22.295000000000002      1.7150000000000001
   243   2                       0      20.580000000000002      3.4300000000000002
   244   4      1.7150000000000001      22.295000000000002      5.1450000000000005
   245   3                       0      20.580000000000002      6.8600000000000003
   246   3      1.7150000000000001      22.295000000000002      8.5750000000000011
   247   3                       0      20.580000000000002      10.290000000000001
   248   5      1.7150000000000001      22.295000000000002      12.005000000000001
   249   1                       0      20.580000000000002      13.720000000000001
   250   1      1.7150000000000001      22.295000000000002                  15.435
   251   1                       0      20.580000000000002      17.150000000000002
   252   3      1.7150000000000001      22.295000000000002      18.865000000000002
   253   4                       0      20.580000000000002      20.580000000000002
   254   3      1.7150000000000001      22.295000000000002      22.295000000000002
   255   5                       0      20.580000000000002      24.010000000000002
   256   3      1.7150000000000001      22.295000000000002      25.725000000000001
   257   4                       0      20.580000000000002      27.440000000000001
   258   3      1.7150000000000001      22.295000000000002      29.155000000000001
   259   1                       0      20.580000000000002      30.870000000000001
   260   2      1.7150000000000001      22.295000000000002      32.585000000000001
   261   4                       0      20.580000000000002      34.300000000000004
   262   3      1.7150000000000001      22.295000000000002      36.015000000000008
   263   5                       0      20.580000000000002      37.730000000000004
   264   2      1.7150000000000001      22.295000000000002      39.445000000000007
   265   4                       0      20.580000000000002      41.160000000000004
   266   1      1.7150000000000001      22.295000000000002      42.875000000000007
   267   4                       0      20.580000000000002      44.590000000000003
   268   4      1.7150000000000001      22.295000000000002      46.305000000000007
   269   4                       0      20.580000000000002      48.020000000000003
   270   2      1.7150000000000001      22.295000000000002      49.735000000000007
   271   4                       0      20.580000000000002      51.450000000000003
   272   1      1.7150000000000001      22.295000000000002      53.165000000000006
   273   4                       0      20.580000000000002      54.880000000000003
   274   4      1.7150000000000001      22.295000000000002      56.595000000000006
   275   2                       0      20.580000000000002      58.310000000000002
   276   2      1.7150000000000001      22.295000000000002      60.025000000000006
   277   3                       0      20.580000000000002      61.740000000000002
   278   2      1.7150000000000001      22.295000000000002      63.455000000000005
   279   5                       0      20.580000000000002      65.170000000000002
   280   1      1.7150000000000001      22.295000000000002      66.885000000000005
   281   4                       0      24.010000000000002                       0
   282   4      1.7150000000000001      25.725000000000001      1.7150000000000001
   283   2                       0      24.010000000000002      3.4300000000000002
   284   4      1.7150000000000001      25.725000000000001      5.1450000000000005
   285   4                       0      24.010000000000002      6.8600000000000003
   286   5      1.7150000000000001      25.725000000000001      8.5750000000000011
   287   5                       0      24.010000000000002      10.290000000000001
   288   1      1.7150000000000001      25.725000000000001      12.005000000000001
   289   2                       0      24.010000000000002      13.720000000000001
   290   3      1.7150000000000001      25.725000000000001                  15.435
   291   2                       0      24.010000000000002      17.150000000000002
   292   1      1.7150000000000001      25.725000000000001      18.865000000000002
   293   2                       0      24.010000000000002      20.580000000000002
   294   2      1.7150000000000001      25.725000000000001      22.295000000000002
   295   2                       0      24.010000000000002      24.010000000000002
   296   3      1.7150000000000001      25.725000000000001      25.725000000000001
   297   2                       0      24.010000000000002      27.440000000000001
   298   4      1.7150000000000001      25.725000000000001      29.155000000000001
   299   3                       0      24.010000000000002      30.870000000000001
   300   4      1.7150000000000001      25.725000000000001      32.585000000000001
   301   5                       0      24.010000000000002      34.300000000000004
   302   2      1.7150000000000001      25.725000000000001      36.015000000000008
   303   1                       0      24.010000000000002      37.730000000000004
   304   2      1.7150000000000001      25.725000000000001      39.445000000000007
   305   4                       0      24.010000000000002      41.160000000000004
   306   2      1.7150000000000001      25.725000000000001      42.875000000000007
   307   3                       0      24.010000000000002      44.590000000000003
   308   4      1.7150000000000001      25.725000000000001      46.305000000000007
   309   4                       0      24.010000000000002      48.020000000000003
   310   4      1.7150000000000001      25.725000000000001      49.735000000000007
   311   3                       0      24.010000000000002      51.450000000000003
   312   4      1.7150000000000001      25.725000000000001      53.165000000000006
   313   2                       0      24.010000000000002      54.880000000000003
   314   4      1.7150000000000001      25.725000000000001      56.595000000000006
   315   3                       0      24.010000000000002      58.310000000000002
   316   2      1.7150000000000001      25.725000000000001      60.025000000000006
   317   5                       0      24.010000000000002      61.740000000000002
   318   4      1.7150000000000001      25.725000000000001      63.455000000000005
   319   4                       0      24.010000000000002      65.170000000000002
   320   4      1.7150000000000001      25.725000000000001      66.885000000000005
   321   5                       0      27.440000000000001                       0
   322   4      1.7150000000000001      29.155000000000001      1.7150000000000001
   323   3                       0      27.440000000000001      3.4300000000000002
   324   1      1.7150000000000001      29.155000000000001      5.1450000000000005
   325   5                       0      27.440000000000001      6.8600000000000003
   326   3      1.7150000000000001      29.155000000000001      8.5750000000000011
   327   3                       0      27.440000000000001      10.290000000000001
   328   5      1.7150000000000001      29.155000000000001      12.005000000000001
   329   3                       0      27.440000000000001      13.720000000000001
   330   5      1.7150000000000001      29.155000000000001                  15.435
   331   2                       0      27.440000000000001      17.150000000000002
   332   3      1.7150000000000001      29.155000000000001      18.865000000000002
   333   4                       0      27.440000000000001      20.580000000000002
   334   1      1.7150000000000001      29.155000000000001      22.295000000000002
   335   3                       0      27.440000000000001      24.010000000000002
   336   5      1.7150000000000001      29.155000000000001      25.725000000000001
   337   4                       0      27.440000000000001      27.440000000000001
   338   1      1.7150000000000001      29.155000000000001      29.155000000000001
   339   5                       0      27.440000000000001      30.870000000000001
   340   2      1.7150000000000001      29.155000000000001      32.585000000000001
   341   3                       0      27.440000000000001      34.300000000000004
   342   4      1.7150000000000001      29.155000000000001      36.015000000000008
   343   2                       0      27.440000000000001      37.730000000000004
   344   5      1.7150000000000001      29.155000000000001      39.445000000000007
   345   4                       0      27.440000000000001      41.160000000000004
   346   4      1.7150000000000001      29.155000000000001      42.875000000000007
   347   1                       0      27.440000000000001      44.590000000000003
   348   5      1.7150000000000001      29.155000000000001      46.305000000000007
   349   5                       0      27.440000000000001      48.020000000000003
   350   5      1.7150000000000001      29.155000000000001      49.735000000000007
   351   3                       0      27.440000000000001      51.450000000000003
   352   5      1.7150000000000001      29.155000000000001      53.165000000000006
   353   4                       0      27.440000000000001      54.880000000000003
   354   2      1.7150000000000001      29.155000000000001      56.595000000000006
   355   1                       0      27.440000000000001      58.310000000000002
   356   4      1.7150000000000001      29.155000000000001      60.025000000000006
   357   4                       0      27.440000000000001      61.740000000000002
   358   3      1.7150000000000001      29.155000000000001      63.455000000000005
   359   4                       0      27.440000000000001      65.170000000000002