(written by ASE)

16000 atoms
5 atom types

0.0      66.599999999999994  xlo xhi
0.0      66.599999999999994  ylo yhi
0.0      66.599999999999994  zlo zhi

Atoms # atomic

     1   5                       0                       0                       0
     2   5                   1.665                   1.665                   1.665
     3   2                       0                       0      3.3300000000000001
     4   2                   1.665                   1.665      4.9950000000000001
     5   2                       0                       0      6.6600000000000001
     6   1                   1.665                   1.665      8.3249999999999993
     7   2                       0                       0      9.9900000000000002
     8   2                   1.665                   1.665      11.655000000000001
     9   1                       0                       0                   13.32
    10   1                   1.665                   1.665      14.984999999999999
    11   4                       0                       0      16.649999999999999
    12   2                   1.665                   1.665      18.314999999999998
    13   3                       0                       0                   19.98
    14   4                   1.665                   1.665                  21.645
    15   2                       0                       0      23.310000000000002
    16   2                   1.665                   1.665      24.975000000000001
    17   2                       0                       0      26.640000000000001
    18   1                   1.665                   1.665                  28.305
    19   2                       0                       0      29.969999999999999
    20   1                   1.665                   1.665      31.634999999999998
    21   4                       0                       0      33.299999999999997
    22   3                   1.665                   1.665      34.964999999999996
    23   3                       0                       0      36.630000000000003
    24   3                   1.665                   1.665      38.295000000000002
    25   4                       0                       0      39.960000000000001
    26   5                   1.665                   1.665                  41.625
    27   4                       0                       0      43.289999999999999
    28   4                   1.665                   1.665      44.954999999999998
    29   4                       0                       0      46.620000000000005
    30   2                   1.665                   1.665      48.285000000000004
    31   2                       0                       0      49.950000000000003
    32   5                   1.665                   1.665      51.615000000000002
    33   2                       0                       0      53.280000000000001
    34   5                   1.665                   1.665                  54.945
    35   1                       0                       0      56.609999999999999
    36   1                   1.665                   1.665      58.274999999999999
    37   1                       0                       0      59.939999999999998
    38   1                   1.665                   1.665      61.604999999999997
    39   3                       0                       0      63.270000000000003
    40   2                   1.665                   1.665      64.935000000000002
    41   2                       0      3.3300000000000001                       0
    42   1                   1.665      4.9950000000000001                   1.665
    43   2                       0      3.3300000000000001      3.3300000000000001
    44   3                   1.665      4.9950000000000001      4.9950000000000001
    45   1                       0      3.3300000000000001      6.6600000000000001
    46   2                   1.665      4.9950000000000001      8.3249999999999993
    47   4                       0      3.3300000000000001      9.9900000000000002
    48   2                   1.665      4.9950000000000001      11.655000000000001
    49   3                       0      3.3300000000000001                   13.32
    50   1                   1.665      4.9950000000000001      14.984999999999999
    51   5                       0      3.3300000000000001      16.649999999999999
    52   5                   1.665      4.9950000000000001      18.314999999999998
    53   5                       0      3.3300000000000001                   19.98
    54   3                   1.665      4.9950000000000001                  21.645
    55   3                       0      3.3300000000000001      23.310000000000002
    56   5                   1.665      4.9950000000000001      24.975000000000001
    57   3                       0      3.3300000000000001      26.640000000000001
    58   4                   1.665      4.9950000000000001                  28.305
    59   4                       0      3.3300000000000001      29.969999999999999
    60   5                   1.665      4.9950000000000001      31.634999999999998
    61   2                       0      3.3300000000000001      33.299999999999997
    62   5                   1.665      4.9950000000000001      34.964999999999996
    63   2                       0      3.3300000000000001      36.630000000000003
    64   1                   1.665      4.9950000000000001      38.295000000000002
    65   1                       0      3.3300000000000001      39.960000000000001
    66   2                   1.665      4.9950000000000001                  41.625
    67   2                       0      3.3300000000000001      43.289999999999999
    68   3                   1.665      4.9950000000000001      44.954999999999998
    69   4                       0      3.3300000000000001      46.620000000000005
    70   3                   1.665      4.9950000000000001      48.285000000000004
    71   1                       0      3.3300000000000001      49.950000000000003
    72   2                   1.665      4.9950000000000001      51.615000000000002
    73   1                       0      3.3300000000000001      53.280000000000001
    74   5                   1.665      4.9950000000000001                  54.945
    75   5                       0      3.3300000000000001      56.609999999999999
    76   2                   1.665      4.9950000000000001      58.274999999999999
    77   4                       0      3.3300000000000001      59.939999999999998
    78   4                   1.665      4.9950000000000001      61.604999999999997
    79   4                       0      3.3300000000000001      63.270000000000003
    80   3                   1.665      4.9950000000000001      64.935000000000002
    81   5                       0      6.6600000000000001                       0
    82   1                   1.665      8.3249999999999993                   1.665
    83   2                       0      6.6600000000000001      3.3300000000000001
    84   4                   1.665      8.3249999999999993      4.9950000000000001
    85   4                       0      6.6600000000000001      6.6600000000000001
    86   4                   1.665      8.3249999999999993      8.3249999999999993
    87   5                       0      6.6600000000000001      9.9900000000000002
    88   1                   1.665      8.3249999999999993      11.655000000000001
    89   4                       0      6.6600000000000001                   13.32
    90   3                   1.665      8.3249999999999993      14.984999999999999
    91   1                       0      6.6600000000000001      16.649999999999999
    92   1                   1.665      8.3249999999999993      18.314999999999998
    93   2                       0      6.6600000000000001                   19.98
    94   1                   1.665      8.3249999999999993                  21.645
    95   3                       0      6.6600000000000001      23.310000000000002
    96   2                   1.665      8.3249999999999993      24.975000000000001
    97   2                       0      6.6600000000000001      26.640000000000001
    98   3                   1.665      8.3249999999999993                  28.305
    99   1                       0      6.6600000000000001      29.969999999999999
   100   1                   1.665      8.3249999999999993      31.634999999999998
   101   3                       0      6.6600000000000001      33.299999999999997
   102   3                   1.665      8.3249999999999993      34.964999999999996
   103   2                       0      6.6600000000000001      36.630000000000003
   104   5                   1.665      8.3249999999999993      38.295000000000002
   105   1                       0      6.6600000000000001      39.960000000000001
   106   1                   1.665      8.3249999999999993                  41.625
   107   3                       0      6.6600000000000001      43.289999999999999
   108   2                   1.665      8.3249999999999993      44.954999999999998
   109   5                       0      6.6600000000000001      46.620000000000005
   110   1                   1.665      8.3249999999999993      48.285000000000004
   111   2                       0      6.6600000000000001      49.950000000000003
   112   5                   1.665      8.3249999999999993      51.615000000000002
   113   5                       0      6.6600000000000001      53.280000000000001
   114   1                   1.665      8.3249999999999993                  54.945
   115   3                       0      6.6600000000000001      56.609999999999999
   116   5                   1.665      8.3249999999999993      58.274999999999999
   117   2                       0      6.6600000000000001      59.939999999999998
   118   5                   1.665      8.3249999999999993      61.604999999999997
   119   2                       0      6.6600000000000001      63.270000000000003
   120   4                   1.665      8.3249999999999993      64.935000000000002
   121   2                       0      9.9900000000000002                       0
   122   5                   1.665      11.655000000000001                   1.665
   123   3                       0      9.9900000000000002      3.3300000000000001
   124   4                   1.665      11.655000000000001      4.9950000000000001
   125   4                       0      9.9900000000000002      6.6600000000000001
   126   5                   1.665      11.655000000000001      8.3249999999999993
   127   3                       0      9.9900000000000002      9.9900000000000002
   128   1                   1.665      11.655000000000001      11.655000000000001
   129   1                       0      9.9900000000000002                   13.32
   130   5                   1.665      11.655000000000001      14.984999999999999
   131   1                       0      9.9900000000000002      16.649999999999999
   132   5                   1.665      11.655000000000001      18.314999999999998
   133   5                       0      9.9900000000000002                   19.98
   134   1                   1.665      11.655000000000001                  21.645
   135   3                       0      9.9900000000000002      23.310000000000002
   136   1                   1.665      11.655000000000001      24.975000000000001
   137   1                       0      9.9900000000000002      26.640000000000001
   138   2                   1.665      11.655000000000001                  28.305
   139   4                       0      9.9900000000000002      29.969999999999999
   140   4                   1.665      11.655000000000001      31.634999999999998
   141   2                       0      9.9900000000000002      33.299999999999997
   142   2                   1.665      11.655000000000001      34.964999999999996
   143   4                       0      9.9900000000000002      36.630000000000003
   144   4                   1.665      11.655000000000001      38.295000000000002
   145   4                       0      9.9900000000000002      39.960000000000001
   146   3                   1.665      11.655000000000001                  41.625
   147   3                       0      9.9900000000000002      43.289999999999999
   148   2                   1.665      11.655000000000001      44.954999999999998
   149   4                       0      9.9900000000000002      46.620000000000005
   150   3                   1.665      11.655000000000001      48.285000000000004
   151   5                       0      9.9900000000000002      49.950000000000003
   152   3                   1.665      11.655000000000001      51.615000000000002
   153   1                       0      9.9900000000000002      53.280000000000001
   154   3                   1.665      11.655000000000001                  54.945
   155   4                       0      9.9900000000000002      56.609999999999999
   156   4                   1.665      11.655000000000001      58.274999999999999
   157   1                       0      9.9900000000000002      59.939999999999998
   158   2                   1.665      11.655000000000001      61.604999999999997
   159   4                       0      9.9900000000000002      63.270000000000003
   160   5                   1.665      11.655000000000001      64.935000000000002
   161   1                       0                   13.32                       0
   162   1                   1.665      14.984999999999999                   1.665
   163   5                       0                   13.32      3.3300000000000001
   164   2                   1.665      14.984999999999999      4.9950000000000001
   165   4                       0                   13.32      6.6600000000000001
   166   3                   1.665      14.984999999999999      8.3249999999999993
   167   1                       0                   13.32      9.9900000000000002
   168   3                   1.665      14.984999999999999      11.655000000000001
   169   5                       0                   13.32                   13.32
   170   3                   1.665      14.984999999999999      14.984999999999999
   171   3                       0                   13.32      16.649999999999999
   172   5                   1.665      14.984999999999999      18.314999999999998
   173   5                       0                   13.32                   19.98
   174   1                   1.665      14.984999999999999                  21.645
   175   2                       0                   13.32      23.310000000000002
   176   1                   1.665      14.984999999999999      24.975000000000001
   177   3                       0                   13.32      26.640000000000001
   178   2                   1.665      14.984999999999999                  28.305
   179   5                       0                   13.32      29.969999999999999
   180   3                   1.665      14.984999999999999      31.634999999999998
   181   1                       0                   13.32      33.299999999999997
   182   3                   1.665      14.984999999999999      34.964999999999996
   183   3                       0                   13.32      36.630000000000003
   184   5                   1.665      14.984999999999999      38.295000000000002
   185   3                       0                   13.32      39.960000000000001
   186   1                   1.665      14.984999999999999                  41.625
   187   4                       0                   13.32      43.289999999999999
   188   2                   1.665      14.984999999999999      44.954999999999998
   189   3                       0                   13.32      46.620000000000005
   190   3                   1.665      14.984999999999999      48.285000000000004
   191   2                       0                   13.32      49.950000000000003
   192   4                   1.665      14.984999999999999      51.615000000000002
   193   4                       0                   13.32      53.280000000000001
   194   1                   1.665      14.984999999999999                  54.945
   195   1                       0                   13.32      56.609999999999999
   196   3                   1.665      14.984999999999999      58.274999999999999
   197   5                       0                   13.32      59.939999999999998
   198   3                   1.665      14.984999999999999      61.604999999999997
   199   1                       0                   13.32      63.270000000000003
   200   5                   1.665      14.984999999999999      64.935000000000002
   201   4                       0      16.649999999999999                       0
   202   2                   1.665      18.314999999999998                   1.665
   203   4                       0      16.649999999999999      3.3300000000000001
   204   5                   1.665      18.314999999999998      4.9950000000000001
   205   2                       0      16.649999999999999      6.6600000000000001
   206   4                   1.665      18.314999999999998      8.3249999999999993
   207   3                       0      16.649999999999999      9.9900000000000002
   208   5                   1.665      18.314999999999998      11.655000000000001
   209   1                       0      16.649999999999999                   13.32
   210   2                   1.665      18.314999999999998      14.984999999999999
   211   2                       0      16.649999999999999      16.649999999999999
   212   3                   1.665      18.314999999999998      18.314999999999998
   213   5                       0      16.649999999999999                   19.98
   214   3                   1.665      18.314999999999998                  21.645
   215   2                       0      16.649999999999999      23.310000000000002
   216   2                   1.665      18.314999999999998      24.975000000000001
   217   3                       0      16.649999999999999      26.640000000000001
   218   3                   1.665      18.314999999999998                  28.305
   219   2                       0      16.649999999999999      29.969999999999999
   220   1                   1.665      18.314999999999998      31.634999999999998
   221   5                       0      16.649999999999999      33.299999999999997
   222   4                   1.665      18.314999999999998      34.964999999999996
   223   3                       0      16.649999999999999      36.630000000000003
   224   2                   1.665      18.314999999999998      38.295000000000002
   225   3                       0      16.649999999999999      39.960000000000001
   226   3                   1.665      18.314999999999998                  41.625
   227   1                       0      16.649999999999999      43.289999999999999
   228   2                   1.665      18.314999999999998      44.954999999999998
   229   1                       0      16.649999999999999      46.620000000000005
   230   3                   1.665      18.314999999999998      48.285000000000004
   231   4                       0      16.649999999999999      49.950000000000003
   232   5                   1.665      18.314999999999998      51.615000000000002
   233   1                       0      16.649999999999999      53.280000000000001
   234   2                   1.665      18.314999999999998                  54.945
   235   5                       0      16.649999999999999      56.609999999999999
   236   2                   1.665      18.314999999999998      58.274999999999999
   237   5                       0      16.649999999999999      59.939999999999998
   238   4                   1.665      18.314999999999998      61.604999999999997
   239   5                       0      16.649999999999999      63.270000000000003
   240   2                   1.665      18.314999999999998      64.935000000000002
   241   5                       0                   19.98                       0
   242   3                   1.665                  21.645                   1.665
   243   3                       0                   19.98      3.3300000000000001
   244   4                   1.665                  21.645      4.9950000000000001
   245   4                       0                   19.98      6.6600000000000001
   246   5                   1.665                  21.645      8.3249999999999993
   247   1                       0                   19.98      9.9900000000000002
   248   3                   1.665                  21.645      11.655000000000001
   249   5                       0                   19.98                   13.32
   250   1                   1.665                  21.645      14.984999999999999
   251   2                       0                   19.98      16.649999999999999
   252   5                   1.665                  21.645      18.314999999999998
   253   4                       0                   19.98                   19.98
   254   1                   1.665                  21.645                  21.645
   255   1                       0                   19.98      23.310000000000002
   256   3                   1.665                  21.645      24.975000000000001
   257   1                       0                   19.98      26.640000000000001
   258   4                   1.665                  21.645                  28.305
   259   4                       0                   19.98      29.969999999999999
   260   2                   1.665                  21.645      31.634999999999998
   261   1                       0                   19.98      33.299999999999997
   262   4                   1.665                  21.645      34.964999999999996
   263   3                       0                   19.98      36.630000000000003
   264   2                   1.665                  21.645      38.295000000000002
   265   5                       0                   19.98      39.960000000000001
   266   1                   1.665                  21.645                  41.625
   267   1                       0                   19.98      43.289999999999999
   268   3                   1.665                  21.645      44.954999999999998
   269   4                       0                   19.98      46.620000000000005
   270   1                   1.665                  21.645      48.285000000000004
   271   4                       0                   19.98      49.950000000000003
   272   1                   1.665                  21.645      51.615000000000002
   273   5                       0                   19.98      53.280000000000001
   274   3                   1.665                  21.645                  54.945
   275   5                       0                   19.98      56.609999999999999
   276   3                   1.665                  21.645      58.274999999999999
   277   3                       0                   19.98      59.939999999999998
   278   3                   1.665                  21.645      61.604999999999997
   279   5                       0                   19.98      63.270000000000003
   280   3                   1.665                  21.645      64.935000000000002
   281   2                       0      23.310000000000002                       0
   282   3                   1.665      24.975000000000001                   1.665
   283   2                       0      23.310000000000002      3.3300000000000001
   284   4                   1.665      24.975000000000001      4.9950000000000001
   285   1                       0      23.310000000000002      6.6600000000000001
   286   2                   1.665      24.975000000000001      8.3249999999999993
   287   2                       0      23.310000000000002      9.9900000000000002
   288   2                   1.665      24.975000000000001      11.655000000000001
   289   3                       0      23.310000000000002                   13.32
   290   3                   1.665      24.975000000000001      14.984999999999999
   291   1                       0      23.310000000000002      16.649999999999999
   292   2                   1.665      24.975000000000001      18.314999999999998
   293   1                       0      23.310000000000002                   19.98
   294   5                   1.665      24.975000000000001                  21.645
   295   2                       0      23.310000000000002      23.310000000000002
   296   4                   1.665      24.975000000000001      24.975000000000001
   297   5                       0      23.310000000000002      26.640000000000001
   298   5                   1.665      24.975000000000001                  28.305
   299   1                       0      23.310000000000002      29.969999999999999
   300   3                   1.665      24.975000000000001      31.634999999999998
   301   1                       0      23.310000000000002      33.299999999999997
   302   1                   1.665      24.975000000000001      34.964999999999996
   303   2                       0      23.310000000000002      36.630000000000003
   304   3                   1.665      24.975000000000001      38.295000000000002
   305   1                       0      23.310000000000002      39.960000000000001
   306   2                   1.665      24.975000000000001                  41.625
   307   4                       0      23.310000000000002      43.289999999999999
   308   3                   1.665      24.975000000000001      44.954999999999998
   309   5                       0      23.310000000000002      46.620000000000005
   310   5                   1.665      24.975000000000001      48.285000000000004
   311   3                       0      23.310000000000002      49.950000000000003
   312   3                   1.665      24.975000000000001      51.615000000000002
   313   4                       0      23.310000000000002      53.280000000000001
   314   5                   1.665      24.975000000000001                  54.945
   315   5                       0      23.310000000000002      56.609999999999999
   316   1                   1.665      24.975000000000001      58.274999999999999
   317   4                       0      23.310000000000002      59.939999999999998
   318   1                   1.665      24.975000000000001      61.604999999999997
   319   2                       0      23.310000000000002      63.270000000000003
   320   1                   1.665      24.975000000000001      64.935000000000002
   321   2                       0      26.640000000000001                       0
   322   4                   1.665                  28.305                   1.665
   323   2                       0      26.640000000000001      3.3300000000000001
   324   2                   1.665                  28.305      4.9950000000000001
   325   3                       0      26.640000000000001      6.6600000000000001
   326   3                   1.665                  28.305      8.3249999999999993
   327   4                       0      26.640000000000001      9.9900000000000002
   328   5                   1.665                  28.305      11.655000000000001
   329   5                       0      26.640000000000001                   13.32
   330   2                   1.665                  28.305      14.984999999999999
   331   4                       0      26.640000000000001      16.649999999999999
   332   1                   1.665                  28.305      18.314999999999998
   333   2                       0      26.640000000000001                   19.98
   334   4                   1.665                  28.305                  21.645
   335   5                       0      26.640000000000001      23.310000000000002
   336   1                   1.665                  28.305      24.975000000000001
   337   1                       0      26.640000000000001      26.640000000000001
   338   1                   1.665                  28.305                  28.305
   339   5                       0      26.640000000000001      29.969999999999999
   340   1                   1.665                  28.305      31.634999999999998
   341   4                       0      26.640000000000001      33.299999999999997
   342   4                   1.665                  28.305      34.964999999999996
   343   1                       0      26.640000000000001      36.630000000000003
   344   5                   1.665                  28.305      38.295000000000002
   345   4                       0      26.640000000000001      39.960000000000001
   346   2                   1.665                  28.305                  41.625
   347   1                       0      26.640000000000001      43.289999999999999
   348   4                   1.665                  28.305      44.954999999999998
   349   3                       0      26.640000000000001      46.620000000000005
   350   4                   1.665                  28.305      48.285000000000004
   351   5                       0      26.640000000000001      49.950000000000003
   352   5                   1.665                  28.305      51.615000000000002
   353   5                       0      26.640000000000001      53.280000000000001
   354   3                   1.665                  28.305                  54.945
   355   5                       0      26.640000000000001      56.609999999999999
   356   3                   1.665                  28.305      58.274999999999999
   357   4                       0      26.640000000000001      59.939999999999998
   358   1                   1.665                  28.305      61.604999999999997
   359   2                       0      26.640000000000001      63.270000000000003