(written by ASE)

16000 atoms
5 atom types

0.0                      67  xlo xhi
0.0                      67  ylo yhi
0.0                      67  zlo zhi

Atoms # atomic

     1   3                       0                       0                       0
     2   4                   1.675                   1.675                   1.675
     3   3                       0                       0      3.3500000000000001
     4   1                   1.675                   1.675      5.0250000000000004
     5   5                       0                       0      6.7000000000000002
     6   1                   1.675                   1.675                   8.375
     7   3                       0                       0      10.050000000000001
     8   1                   1.675                   1.675      11.725000000000001
     9   5                       0                       0                    13.4
    10   1                   1.675                   1.675      15.075000000000001
    11   5                       0                       0                   16.75
    12   3                   1.675                   1.675      18.425000000000001
    13   3                       0                       0      20.100000000000001
    14   1                   1.675                   1.675      21.775000000000002
    15   2                       0                       0      23.449999999999999
    16   5                   1.675                   1.675                  25.125
    17   3                       0                       0      26.800000000000001
    18   3                   1.675                   1.675      28.475000000000001
    19   3                       0                       0      30.150000000000002
    20   2                   1.675                   1.675      31.825000000000003
    21   3                       0                       0                    33.5
    22   3                   1.675                   1.675      35.174999999999997
    23   1                       0                       0      36.850000000000001
    24   4                   1.675                   1.675      38.524999999999999
    25   3                       0                       0      40.200000000000003
    26   1                   1.675                   1.675                  41.875
    27   4                       0                       0      43.550000000000004
    28   5                   1.675                   1.675      45.225000000000001
    29   1                       0                       0      46.899999999999999
    30   3                   1.675                   1.675      48.574999999999996
    31   1                       0                       0                   50.25
    32   2                   1.675                   1.675      51.924999999999997
    33   2                       0                       0      53.600000000000001
    34   5                   1.675                   1.675      55.274999999999999
    35   1                       0                       0      56.950000000000003
    36   2                   1.675                   1.675                  58.625
    37   2                       0                       0      60.300000000000004
    38   2                   1.675                   1.675      61.975000000000001
    39   5                       0                       0      63.649999999999999
    40   4                   1.675                   1.675      65.325000000000003
    41   5                       0      3.3500000000000001                       0
    42   1                   1.675      5.0250000000000004                   1.675
    43   2                       0      3.3500000000000001      3.3500000000000001
    44   3                   1.675      5.0250000000000004      5.0250000000000004
    45   2                       0      3.3500000000000001      6.7000000000000002
    46   1                   1.675      5.0250000000000004                   8.375
    47   1                       0      3.3500000000000001      10.050000000000001
    48   2                   1.675      5.0250000000000004      11.725000000000001
    49   3                       0      3.3500000000000001                    13.4
    50   5                   1.675      5.0250000000000004      15.075000000000001
    51   1                       0      3.3500000000000001                   16.75
    52   2                   1.675      5.0250000000000004      18.425000000000001
    53   3                       0      3.3500000000000001      20.100000000000001
    54   5                   1.675      5.0250000000000004      21.775000000000002
    55   3                       0      3.3500000000000001      23.449999999999999
    56   1                   1.675      5.0250000000000004                  25.125
    57   1                       0      3.3500000000000001      26.800000000000001
    58   5                   1.675      5.0250000000000004      28.475000000000001
    59   3                       0      3.3500000000000001      30.150000000000002
    60   5                   1.675      5.0250000000000004      31.825000000000003
    61   5                       0      3.3500000000000001                    33.5
    62   2                   1.675      5.0250000000000004      35.174999999999997
    63   1                       0      3.3500000000000001      36.850000000000001
    64   5                   1.675      5.0250000000000004      38.524999999999999
    65   4                       0      3.3500000000000001      40.200000000000003
    66   2                   1.675      5.0250000000000004                  41.875
    67   1                       0      3.3500000000000001      43.550000000000004
    68   3                   1.675      5.0250000000000004      45.225000000000001
    69   3                       0      3.3500000000000001      46.899999999999999
    70   4                   1.675      5.0250000000000004      48.574999999999996
    71   5                       0      3.3500000000000001                   50.25
    72   3                   1.675      5.0250000000000004      51.924999999999997
    73   4                       0      3.3500000000000001      53.600000000000001
    74   5                   1.675      5.0250000000000004      55.274999999999999
    75   5                       0      3.3500000000000001      56.950000000000003
    76   2                   1.675      5.0250000000000004                  58.625
    77   5                       0      3.3500000000000001      60.300000000000004
    78   2                   1.675      5.0250000000000004      61.975000000000001
    79   5                       0      3.3500000000000001      63.649999999999999
    80   4                   1.675      5.0250000000000004      65.325000000000003
    81   2                       0      6.7000000000000002                       0
    82   3                   1.675                   8.375                   1.675
    83   2                       0      6.7000000000000002      3.3500000000000001
    84   2                   1.675                   8.375      5.0250000000000004
    85   4                       0      6.7000000000000002      6.7000000000000002
    86   1                   1.675                   8.375                   8.375
    87   2                       0      6.7000000000000002      10.050000000000001
    88   1                   1.675                   8.375      11.725000000000001
    89   4                       0      6.7000000000000002                    13.4
    90   2                   1.675                   8.375      15.075000000000001
    91   3                       0      6.7000000000000002                   16.75
    92   3                   1.675                   8.375      18.425000000000001
    93   4                       0      6.7000000000000002      20.100000000000001
    94   5                   1.675                   8.375      21.775000000000002
    95   2                       0      6.7000000000000002      23.449999999999999
    96   2                   1.675                   8.375                  25.125
    97   4                       0      6.7000000000000002      26.800000000000001
    98   3                   1.675                   8.375      28.475000000000001
    99   3                       0      6.7000000000000002      30.150000000000002
   100   2                   1.675                   8.375      31.825000000000003
   101   3                       0      6.7000000000000002                    33.5
   102   1                   1.675                   8.375      35.174999999999997
   103   5                       0      6.7000000000000002      36.850000000000001
   104   4                   1.675                   8.375      38.524999999999999
   105   1                       0      6.7000000000000002      40.200000000000003
   106   3                   1.675                   8.375                  41.875
   107   1                       0      6.7000000000000002      43.550000000000004
   108   4                   1.675                   8.375      45.225000000000001
   109   3                       0      6.7000000000000002      46.899999999999999
   110   5                   1.675                   8.375      48.574999999999996
   111   5                       0      6.7000000000000002                   50.25
   112   1                   1.675                   8.375      51.924999999999997
   113   3                       0      6.7000000000000002      53.600000000000001
   114   1                   1.675                   8.375      55.274999999999999
   115   3                       0      6.7000000000000002      56.950000000000003
   116   5                   1.675                   8.375                  58.625
   117   3                       0      6.7000000000000002      60.300000000000004
   118   3                   1.675                   8.375      61.975000000000001
   119   2                       0      6.7000000000000002      63.649999999999999
   120   3                   1.675                   8.375      65.325000000000003
   121   1                       0      10.050000000000001                       0
   122   1                   1.675      11.725000000000001                   1.675
   123   2                       0      10.050000000000001      3.3500000000000001
   124   4                   1.675      11.725000000000001      5.0250000000000004
   125   3                       0      10.050000000000001      6.7000000000000002
   126   4                   1.675      11.725000000000001                   8.375
   127   4                       0      10.050000000000001      10.050000000000001
   128   2                   1.675      11.725000000000001      11.725000000000001
   129   5                       0      10.050000000000001                    13.4
   130   2                   1.675      11.725000000000001      15.075000000000001
   131   4                       0      10.050000000000001                   16.75
   132   2                   1.675      11.725000000000001      18.425000000000001
   133   3                       0      10.050000000000001      20.100000000000001
   134   3                   1.675      11.725000000000001      21.775000000000002
   135   1                       0      10.050000000000001      23.449999999999999
   136   1                   1.675      11.725000000000001                  25.125
   137   5                       0      10.050000000000001      26.800000000000001
   138   3                   1.675      11.725000000000001      28.475000000000001
   139   3                       0      10.050000000000001      30.150000000000002
   140   4                   1.675      11.725000000000001      31.825000000000003
   141   3                       0      10.050000000000001                    33.5
   142   3                   1.675      11.725000000000001      35.174999999999997
   143   4                       0      10.050000000000001      36.850000000000001
   144   3                   1.675      11.725000000000001      38.524999999999999
   145   3                       0      10.050000000000001      40.200000000000003
   146   2                   1.675      11.725000000000001                  41.875
   147   5                       0      10.050000000000001      43.550000000000004
   148   2                   1.675      11.725000000000001      45.225000000000001
   149   4                       0      10.050000000000001      46.899999999999999
   150   4                   1.675      11.725000000000001      48.574999999999996
   151   4                       0      10.050000000000001                   50.25
   152   5                   1.675      11.725000000000001      51.924999999999997
   153   5                       0      10.050000000000001      53.600000000000001
   154   4                   1.675      11.725000000000001      55.274999999999999
   155   1                       0      10.050000000000001      56.950000000000003
   156   4                   1.675      11.725000000000001                  58.625
   157   1                       0      10.050000000000001      60.300000000000004
   158   3                   1.675      11.725000000000001      61.975000000000001
   159   5                       0      10.050000000000001      63.649999999999999
   160   4                   1.675      11.725000000000001      65.325000000000003
   161   2                       0                    13.4                       0
   162   2                   1.675      15.075000000000001                   1.675
   163   1                       0                    13.4      3.3500000000000001
   164   5                   1.675      15.075000000000001      5.0250000000000004
   165   3                       0                    13.4      6.7000000000000002
   166   2                   1.675      15.075000000000001                   8.375
   167   5                       0                    13.4      10.050000000000001
   168   5                   1.675      15.075000000000001      11.725000000000001
   169   5                       0                    13.4                    13.4
   170   2                   1.675      15.075000000000001      15.075000000000001
   171   1                       0                    13.4                   16.75
   172   3                   1.675      15.075000000000001      18.425000000000001
   173   1                       0                    13.4      20.100000000000001
   174   4                   1.675      15.075000000000001      21.775000000000002
   175   2                       0                    13.4      23.449999999999999
   176   3                   1.675      15.075000000000001                  25.125
   177   5                       0                    13.4      26.800000000000001
   178   1                   1.675      15.075000000000001      28.475000000000001
   179   1                       0                    13.4      30.150000000000002
   180   3                   1.675      15.075000000000001      31.825000000000003
   181   2                       0                    13.4                    33.5
   182   5                   1.675      15.075000000000001      35.174999999999997
   183   2                       0                    13.4      36.850000000000001
   184   2                   1.675      15.075000000000001      38.524999999999999
   185   1                       0                    13.4      40.200000000000003
   186   5                   1.675      15.075000000000001                  41.875
   187   4                       0                    13.4      43.550000000000004
   188   5                   1.675      15.075000000000001      45.225000000000001
   189   1                       0                    13.4      46.899999999999999
   190   4                   1.675      15.075000000000001      48.574999999999996
   191   3                       0                    13.4                   50.25
   192   5                   1.675      15.075000000000001      51.924999999999997
   193   2                       0                    13.4      53.600000000000001
   194   3                   1.675      15.075000000000001      55.274999999999999
   195   3                       0                    13.4      56.950000000000003
   196   5                   1.675      15.075000000000001                  58.625
   197   1                       0                    13.4      60.300000000000004
   198   3                   1.675      15.075000000000001      61.975000000000001
   199   3                       0                    13.4      63.649999999999999
   200   3                   1.675      15.075000000000001      65.325000000000003
   201   5                       0                   16.75                       0
   202   2                   1.675      18.425000000000001                   1.675
   203   5                       0                   16.75      3.3500000000000001
   204   5                   1.675      18.425000000000001      5.0250000000000004
   205   2                       0                   16.75      6.7000000000000002
   206   5                   1.675      18.425000000000001                   8.375
   207   4                       0                   16.75      10.050000000000001
   208   5                   1.675      18.425000000000001      11.725000000000001
   209   3                       0                   16.75                    13.4
   210   4                   1.675      18.425000000000001      15.075000000000001
   211   4                       0                   16.75                   16.75
   212   4                   1.675      18.425000000000001      18.425000000000001
   213   5                       0                   16.75      20.100000000000001
   214   2                   1.675      18.425000000000001      21.775000000000002
   215   5                       0                   16.75      23.449999999999999
   216   2                   1.675      18.425000000000001                  25.125
   217   2                       0                   16.75      26.800000000000001
   218   3                   1.675      18.425000000000001      28.475000000000001
   219   4                       0                   16.75      30.150000000000002
   220   2                   1.675      18.425000000000001      31.825000000000003
   221   1                       0                   16.75                    33.5
   222   3                   1.675      18.425000000000001      35.174999999999997
   223   5                       0                   16.75      36.850000000000001
   224   1                   1.675      18.425000000000001      38.524999999999999
   225   1                       0                   16.75      40.200000000000003
   226   4                   1.675      18.425000000000001                  41.875
   227   1                       0                   16.75      43.550000000000004
   228   1                   1.675      18.425000000000001      45.225000000000001
   229   5                       0                   16.75      46.899999999999999
   230   1                   1.675      18.425000000000001      48.574999999999996
   231   1                       0                   16.75                   50.25
   232   5                   1.675      18.425000000000001      51.924999999999997
   233   1                       0                   16.75      53.600000000000001
   234   4                   1.675      18.425000000000001      55.274999999999999
   235   5                       0                   16.75      56.950000000000003
   236   5                   1.675      18.425000000000001                  58.625
   237   3                       0                   16.75      60.300000000000004
   238   5                   1.675      18.425000000000001      61.975000000000001
   239   4                       0                   16.75      63.649999999999999
   240   1                   1.675      18.425000000000001      65.325000000000003
   241   5                       0      20.100000000000001                       0
   242   1                   1.675      21.775000000000002                   1.675
   243   4                       0      20.100000000000001      3.3500000000000001
   244   2                   1.675      21.775000000000002      5.0250000000000004
   245   5                       0      20.100000000000001      6.7000000000000002
   246   2                   1.675      21.775000000000002                   8.375
   247   5                       0      20.100000000000001      10.050000000000001
   248   1                   1.675      21.775000000000002      11.725000000000001
   249   1                       0      20.100000000000001                    13.4
   250   4                   1.675      21.775000000000002      15.075000000000001
   251   5                       0      20.100000000000001                   16.75
   252   1                   1.675      21.775000000000002      18.425000000000001
   253   2                       0      20.100000000000001      20.100000000000001
   254   1                   1.675      21.775000000000002      21.775000000000002
   255   2                       0      20.100000000000001      23.449999999999999
   256   5                   1.675      21.775000000000002                  25.125
   257   1                       0      20.100000000000001      26.800000000000001
   258   5                   1.675      21.775000000000002      28.475000000000001
   259   2                       0      20.100000000000001      30.150000000000002
   260   4                   1.675      21.775000000000002      31.825000000000003
   261   4                       0      20.100000000000001                    33.5
   262   3                   1.675      21.775000000000002      35.174999999999997
   263   2                       0      20.100000000000001      36.850000000000001
   264   1                   1.675      21.775000000000002      38.524999999999999
   265   3                       0      20.100000000000001      40.200000000000003
   266   5                   1.675      21.775000000000002                  41.875
   267   4                       0      20.100000000000001      43.550000000000004
   268   5                   1.675      21.775000000000002      45.225000000000001
   269   2                       0      20.100000000000001      46.899999999999999
   270   1                   1.675      21.775000000000002      48.574999999999996
   271   1                       0      20.100000000000001                   50.25
   272   4                   1.675      21.775000000000002      51.924999999999997
   273   2                       0      20.100000000000001      53.600000000000001
   274   1                   1.675      21.775000000000002      55.274999999999999
   275   2                       0      20.100000000000001      56.950000000000003
   276   3                   1.675      21.775000000000002                  58.625
   277   1                       0      20.100000000000001      60.300000000000004
   278   4                   1.675      21.775000000000002      61.975000000000001
   279   5                       0      20.100000000000001      63.649999999999999
   280   4                   1.675      21.775000000000002      65.325000000000003
   281   3                       0      23.449999999999999                       0
   282   5                   1.675                  25.125                   1.675
   283   3                       0      23.449999999999999      3.3500000000000001
   284   5                   1.675                  25.125      5.0250000000000004
   285   4                       0      23.449999999999999      6.7000000000000002
   286   1                   1.675                  25.125                   8.375
   287   5                       0      23.449999999999999      10.050000000000001
   288   5                   1.675                  25.125      11.725000000000001
   289   5                       0      23.449999999999999                    13.4
   290   1                   1.675                  25.125      15.075000000000001
   291   3                       0      23.449999999999999                   16.75
   292   1                   1.675                  25.125      18.425000000000001
   293   2                       0      23.449999999999999      20.100000000000001
   294   1                   1.675                  25.125      21.775000000000002
   295   4                       0      23.449999999999999      23.449999999999999
   296   4                   1.675                  25.125                  25.125
   297   3                       0      23.449999999999999      26.800000000000001
   298   2                   1.675                  25.125      28.475000000000001
   299   3                       0      23.449999999999999      30.150000000000002
   300   1                   1.675                  25.125      31.825000000000003
   301   1                       0      23.449999999999999                    33.5
   302   2                   1.675                  25.125      35.174999999999997
   303   3                       0      23.449999999999999      36.850000000000001
   304   4                   1.675                  25.125      38.524999999999999
   305   3                       0      23.449999999999999      40.200000000000003
   306   3                   1.675                  25.125                  41.875
   307   4                       0      23.449999999999999      43.550000000000004
   308   3                   1.675                  25.125      45.225000000000001
   309   1                       0      23.449999999999999      46.899999999999999
   310   3                   1.675                  25.125      48.574999999999996
   311   5                       0      23.449999999999999                   50.25
   312   5                   1.675                  25.125      51.924999999999997
   313   4                       0      23.449999999999999      53.600000000000001
   314   4                   1.675                  25.125      55.274999999999999
   315   3                       0      23.449999999999999      56.950000000000003
   316   1                   1.675                  25.125                  58.625
   317   5                       0      23.449999999999999      60.300000000000004
   318   5                   1.675                  25.125      61.975000000000001
   319   2                       0      23.449999999999999      63.649999999999999
   320   5                   1.675                  25.125      65.325000000000003
   321   2                       0      26.800000000000001                       0
   322   2                   1.675      28.475000000000001                   1.675
   323   5                       0      26.800000000000001      3.3500000000000001
   324   2                   1.675      28.475000000000001      5.0250000000000004
   325   2                       0      26.800000000000001      6.7000000000000002
   326   1                   1.675      28.475000000000001                   8.375
   327   1                       0      26.800000000000001      10.050000000000001
   328   3                   1.675      28.475000000000001      11.725000000000001
   329   3                       0      26.800000000000001                    13.4
   330   2                   1.675      28.475000000000001      15.075000000000001
   331   2                       0      26.800000000000001                   16.75
   332   4                   1.675      28.475000000000001      18.425000000000001
   333   4                       0      26.800000000000001      20.100000000000001
   334   2                   1.675      28.475000000000001      21.775000000000002
   335   4                       0      26.800000000000001      23.449999999999999
   336   4                   1.675      28.475000000000001                  25.125
   337   4                       0      26.800000000000001      26.800000000000001
   338   1                   1.675      28.475000000000001      28.475000000000001
   339   2                       0      26.800000000000001      30.150000000000002
   340   5                   1.675      28.475000000000001      31.825000000000003
   341   1                       0      26.800000000000001                    33.5
   342   5                   1.675      28.475000000000001      35.174999999999997
   343   4                       0      26.800000000000001      36.850000000000001
   344   1                   1.675      28.475000000000001      38.524999999999999
   345   2                       0      26.800000000000001      40.200000000000003
   346   2                   1.675      28.475000000000001                  41.875
   347   5                       0      26.800000000000001      43.550000000000004
   348   1                   1.675      28.475000000000001      45.225000000000001
   349   1                       0      26.800000000000001      46.899999999999999
   350   2                   1.675      28.475000000000001      48.574999999999996
   351   2                       0      26.800000000000001                   50.25
   352   5                   1.675      28.475000000000001      51.924999999999997
   353   2                       0      26.800000000000001      53.600000000000001
   354   5                   1.675      28.475000000000001      55.274999999999999
   355   3                       0      26.800000000000001      56.950000000000003
   356   3                   1.675      28.475000000000001                  58.625
   357   1                       0      26.800000000000001      60.300000000000004
   358   4                   1.675      28.475000000000001      61.975000000000001
   359   2                       0      26.800000000000001      63.649999999999999