(written by ASE)

16000 atoms
5 atom types

0.0      68.200000000000003  xlo xhi
0.0      68.200000000000003  ylo yhi
0.0      68.200000000000003  zlo zhi

Atoms # atomic

     1   4                       0                       0                       0
     2   3      1.7050000000000001      1.7050000000000001      1.7050000000000001
     3   2                       0                       0      3.4100000000000001
     4   4      1.7050000000000001      1.7050000000000001      5.1150000000000002
     5   1                       0                       0      6.8200000000000003
     6   3      1.7050000000000001      1.7050000000000001      8.5250000000000004
     7   4                       0                       0                   10.23
     8   1      1.7050000000000001      1.7050000000000001                  11.935
     9   2                       0                       0      13.640000000000001
    10   1      1.7050000000000001      1.7050000000000001      15.345000000000001
    11   3                       0                       0      17.050000000000001
    12   5      1.7050000000000001      1.7050000000000001      18.755000000000003
    13   1                       0                       0      20.460000000000001
    14   5      1.7050000000000001      1.7050000000000001      22.164999999999999
    15   2                       0                       0      23.870000000000001
    16   3      1.7050000000000001      1.7050000000000001      25.575000000000003
    17   4                       0                       0      27.280000000000001
    18   3      1.7050000000000001      1.7050000000000001      28.984999999999999
    19   1                       0                       0      30.690000000000001
    20   4      1.7050000000000001      1.7050000000000001      32.395000000000003
    21   3                       0                       0      34.100000000000001
    22   4      1.7050000000000001      1.7050000000000001                  35.805
    23   1                       0                       0      37.510000000000005
    24   2      1.7050000000000001      1.7050000000000001      39.215000000000003
    25   4                       0                       0      40.920000000000002
    26   5      1.7050000000000001      1.7050000000000001                  42.625
    27   4                       0                       0      44.329999999999998
    28   5      1.7050000000000001      1.7050000000000001      46.034999999999997
    29   3                       0                       0      47.740000000000002
    30   5      1.7050000000000001      1.7050000000000001                  49.445
    31   5                       0                       0      51.150000000000006
    32   2      1.7050000000000001      1.7050000000000001      52.855000000000004
    33   1                       0                       0      54.560000000000002
    34   5      1.7050000000000001      1.7050000000000001      56.265000000000001
    35   1                       0                       0      57.969999999999999
    36   2      1.7050000000000001      1.7050000000000001      59.674999999999997
    37   4                       0                       0      61.380000000000003
    38   1      1.7050000000000001      1.7050000000000001      63.085000000000001
    39   2                       0                       0      64.790000000000006
    40   1      1.7050000000000001      1.7050000000000001      66.495000000000005
    41   2                       0      3.4100000000000001                       0
    42   4      1.7050000000000001      5.1150000000000002      1.7050000000000001
    43   4                       0      3.4100000000000001      3.4100000000000001
    44   4      1.7050000000000001      5.1150000000000002      5.1150000000000002
    45   1                       0      3.4100000000000001      6.8200000000000003
    46   3      1.7050000000000001      5.1150000000000002      8.5250000000000004
    47   1                       0      3.4100000000000001                   10.23
    48   5      1.7050000000000001      5.1150000000000002                  11.935
    49   4                       0      3.4100000000000001      13.640000000000001
    50   2      1.7050000000000001      5.1150000000000002      15.345000000000001
    51   5                       0      3.4100000000000001      17.050000000000001
    52   4      1.7050000000000001      5.1150000000000002      18.755000000000003
    53   4                       0      3.4100000000000001      20.460000000000001
    54   5      1.7050000000000001      5.1150000000000002      22.164999999999999
    55   3                       0      3.4100000000000001      23.870000000000001
    56   5      1.7050000000000001      5.1150000000000002      25.575000000000003
    57   4                       0      3.4100000000000001      27.280000000000001
    58   3      1.7050000000000001      5.1150000000000002      28.984999999999999
    59   3                       0      3.4100000000000001      30.690000000000001
    60   5      1.7050000000000001      5.1150000000000002      32.395000000000003
    61   5                       0      3.4100000000000001      34.100000000000001
    62   4      1.7050000000000001      5.1150000000000002                  35.805
    63   5                       0      3.4100000000000001      37.510000000000005
    64   4      1.7050000000000001      5.1150000000000002      39.215000000000003
    65   4                       0      3.4100000000000001      40.920000000000002
    66   3      1.7050000000000001      5.1150000000000002                  42.625
    67   4                       0      3.4100000000000001      44.329999999999998
    68   2      1.7050000000000001      5.1150000000000002      46.034999999999997
    69   5                       0      3.4100000000000001      47.740000000000002
    70   3      1.7050000000000001      5.1150000000000002                  49.445
    71   1                       0      3.4100000000000001      51.150000000000006
    72   5      1.7050000000000001      5.1150000000000002      52.855000000000004
    73   4                       0      3.4100000000000001      54.560000000000002
    74   2      1.7050000000000001      5.1150000000000002      56.265000000000001
    75   3                       0      3.4100000000000001      57.969999999999999
    76   3      1.7050000000000001      5.1150000000000002      59.674999999999997
    77   2                       0      3.4100000000000001      61.380000000000003
    78   3      1.7050000000000001      5.1150000000000002      63.085000000000001
    79   4                       0      3.4100000000000001      64.790000000000006
    80   1      1.7050000000000001      5.1150000000000002      66.495000000000005
    81   5                       0      6.8200000000000003                       0
    82   2      1.7050000000000001      8.5250000000000004      1.7050000000000001
    83   2                       0      6.8200000000000003      3.4100000000000001
    84   2      1.7050000000000001      8.5250000000000004      5.1150000000000002
    85   5                       0      6.8200000000000003      6.8200000000000003
    86   1      1.7050000000000001      8.5250000000000004      8.5250000000000004
    87   2                       0      6.8200000000000003                   10.23
    88   5      1.7050000000000001      8.5250000000000004                  11.935
    89   2                       0      6.8200000000000003      13.640000000000001
    90   3      1.7050000000000001      8.5250000000000004      15.345000000000001
    91   3                       0      6.8200000000000003      17.050000000000001
    92   3      1.7050000000000001      8.5250000000000004      18.755000000000003
    93   3                       0      6.8200000000000003      20.460000000000001
    94   3      1.7050000000000001      8.5250000000000004      22.164999999999999
    95   2                       0      6.8200000000000003      23.870000000000001
    96   4      1.7050000000000001      8.5250000000000004      25.575000000000003
    97   3                       0      6.8200000000000003      27.280000000000001
    98   1      1.7050000000000001      8.5250000000000004      28.984999999999999
    99   3                       0      6.8200000000000003      30.690000000000001
   100   4      1.7050000000000001      8.5250000000000004      32.395000000000003
   101   4                       0      6.8200000000000003      34.100000000000001
   102   1      1.7050000000000001      8.5250000000000004                  35.805
   103   2                       0      6.8200000000000003      37.510000000000005
   104   3      1.7050000000000001      8.5250000000000004      39.215000000000003
   105   5                       0      6.8200000000000003      40.920000000000002
   106   1      1.7050000000000001      8.5250000000000004                  42.625
   107   5                       0      6.8200000000000003      44.329999999999998
   108   1      1.7050000000000001      8.5250000000000004      46.034999999999997
   109   4                       0      6.8200000000000003      47.740000000000002
   110   1      1.7050000000000001      8.5250000000000004                  49.445
   111   2                       0      6.8200000000000003      51.150000000000006
   112   2      1.7050000000000001      8.5250000000000004      52.855000000000004
   113   3                       0      6.8200000000000003      54.560000000000002
   114   2      1.7050000000000001      8.5250000000000004      56.265000000000001
   115   4                       0      6.8200000000000003      57.969999999999999
   116   1      1.7050000000000001      8.5250000000000004      59.674999999999997
   117   5                       0      6.8200000000000003      61.380000000000003
   118   1      1.7050000000000001      8.5250000000000004      63.085000000000001
   119   2                       0      6.8200000000000003      64.790000000000006
   120   3      1.7050000000000001      8.5250000000000004      66.495000000000005
   121   5                       0                   10.23                       0
   122   5      1.7050000000000001                  11.935      1.7050000000000001
   123   2                       0                   10.23      3.4100000000000001
   124   4      1.7050000000000001                  11.935      5.1150000000000002
   125   5                       0                   10.23      6.8200000000000003
   126   2      1.7050000000000001                  11.935      8.5250000000000004
   127   2                       0                   10.23                   10.23
   128   3      1.7050000000000001                  11.935                  11.935
   129   5                       0                   10.23      13.640000000000001
   130   4      1.7050000000000001                  11.935      15.345000000000001
   131   5                       0                   10.23      17.050000000000001
   132   3      1.7050000000000001                  11.935      18.755000000000003
   133   3                       0                   10.23      20.460000000000001
   134   1      1.7050000000000001                  11.935      22.164999999999999
   135   2                       0                   10.23      23.870000000000001
   136   4      1.7050000000000001                  11.935      25.575000000000003
   137   4                       0                   10.23      27.280000000000001
   138   5      1.7050000000000001                  11.935      28.984999999999999
   139   2                       0                   10.23      30.690000000000001
   140   5      1.7050000000000001                  11.935      32.395000000000003
   141   5                       0                   10.23      34.100000000000001
   142   5      1.7050000000000001                  11.935                  35.805
   143   2                       0                   10.23      37.510000000000005
   144   1      1.7050000000000001                  11.935      39.215000000000003
   145   4                       0                   10.23      40.920000000000002
   146   3      1.7050000000000001                  11.935                  42.625
   147   4                       0                   10.23      44.329999999999998
   148   5      1.7050000000000001                  11.935      46.034999999999997
   149   3                       0                   10.23      47.740000000000002
   150   4      1.7050000000000001                  11.935                  49.445
   151   2                       0                   10.23      51.150000000000006
   152   4      1.7050000000000001                  11.935      52.855000000000004
   153   1                       0                   10.23      54.560000000000002
   154   5      1.7050000000000001                  11.935      56.265000000000001
   155   2                       0                   10.23      57.969999999999999
   156   5      1.7050000000000001                  11.935      59.674999999999997
   157   3                       0                   10.23      61.380000000000003
   158   1      1.7050000000000001                  11.935      63.085000000000001
   159   1                       0                   10.23      64.790000000000006
   160   5      1.7050000000000001                  11.935      66.495000000000005
   161   5                       0      13.640000000000001                       0
   162   2      1.7050000000000001      15.345000000000001      1.7050000000000001
   163   3                       0      13.640000000000001      3.4100000000000001
   164   3      1.7050000000000001      15.345000000000001      5.1150000000000002
   165   3                       0      13.640000000000001      6.8200000000000003
   166   2      1.7050000000000001      15.345000000000001      8.5250000000000004
   167   1                       0      13.640000000000001                   10.23
   168   1      1.7050000000000001      15.345000000000001                  11.935
   169   4                       0      13.640000000000001      13.640000000000001
   170   1      1.7050000000000001      15.345000000000001      15.345000000000001
   171   2                       0      13.640000000000001      17.050000000000001
   172   5      1.7050000000000001      15.345000000000001      18.755000000000003
   173   2                       0      13.640000000000001      20.460000000000001
   174   3      1.7050000000000001      15.345000000000001      22.164999999999999
   175   5                       0      13.640000000000001      23.870000000000001
   176   3      1.7050000000000001      15.345000000000001      25.575000000000003
   177   5                       0      13.640000000000001      27.280000000000001
   178   1      1.7050000000000001      15.345000000000001      28.984999999999999
   179   2                       0      13.640000000000001      30.690000000000001
   180   4      1.7050000000000001      15.345000000000001      32.395000000000003
   181   4                       0      13.640000000000001      34.100000000000001
   182   3      1.7050000000000001      15.345000000000001                  35.805
   183   3                       0      13.640000000000001      37.510000000000005
   184   3      1.7050000000000001      15.345000000000001      39.215000000000003
   185   2                       0      13.640000000000001      40.920000000000002
   186   3      1.7050000000000001      15.345000000000001                  42.625
   187   1                       0      13.640000000000001      44.329999999999998
   188   4      1.7050000000000001      15.345000000000001      46.034999999999997
   189   1                       0      13.640000000000001      47.740000000000002
   190   3      1.7050000000000001      15.345000000000001                  49.445
   191   2                       0      13.640000000000001      51.150000000000006
   192   5      1.7050000000000001      15.345000000000001      52.855000000000004
   193   2                       0      13.640000000000001      54.560000000000002
   194   3      1.7050000000000001      15.345000000000001      56.265000000000001
   195   5                       0      13.640000000000001      57.969999999999999
   196   3      1.7050000000000001      15.345000000000001      59.674999999999997
   197   4                       0      13.640000000000001      61.380000000000003
   198   4      1.7050000000000001      15.345000000000001      63.085000000000001
   199   1                       0      13.640000000000001      64.790000000000006
   200   1      1.7050000000000001      15.345000000000001      66.495000000000005
   201   1                       0      17.050000000000001                       0
   202   2      1.7050000000000001      18.755000000000003      1.7050000000000001
   203   3                       0      17.050000000000001      3.4100000000000001
   204   2      1.7050000000000001      18.755000000000003      5.1150000000000002
   205   2                       0      17.050000000000001      6.8200000000000003
   206   5      1.7050000000000001      18.755000000000003      8.5250000000000004
   207   2                       0      17.050000000000001                   10.23
   208   5      1.7050000000000001      18.755000000000003                  11.935
   209   3                       0      17.050000000000001      13.640000000000001
   210   1      1.7050000000000001      18.755000000000003      15.345000000000001
   211   1                       0      17.050000000000001      17.050000000000001
   212   5      1.7050000000000001      18.755000000000003      18.755000000000003
   213   4                       0      17.050000000000001      20.460000000000001
   214   4      1.7050000000000001      18.755000000000003      22.164999999999999
   215   5                       0      17.050000000000001      23.870000000000001
   216   4      1.7050000000000001      18.755000000000003      25.575000000000003
   217   5                       0      17.050000000000001      27.280000000000001
   218   4      1.7050000000000001      18.755000000000003      28.984999999999999
   219   3                       0      17.050000000000001      30.690000000000001
   220   4      1.7050000000000001      18.755000000000003      32.395000000000003
   221   2                       0      17.050000000000001      34.100000000000001
   222   4      1.7050000000000001      18.755000000000003                  35.805
   223   3                       0      17.050000000000001      37.510000000000005
   224   2      1.7050000000000001      18.755000000000003      39.215000000000003
   225   4                       0      17.050000000000001      40.920000000000002
   226   2      1.7050000000000001      18.755000000000003                  42.625
   227   4                       0      17.050000000000001      44.329999999999998
   228   3      1.7050000000000001      18.755000000000003      46.034999999999997
   229   4                       0      17.050000000000001      47.740000000000002
   230   4      1.7050000000000001      18.755000000000003                  49.445
   231   4                       0      17.050000000000001      51.150000000000006
   232   1      1.7050000000000001      18.755000000000003      52.855000000000004
   233   3                       0      17.050000000000001      54.560000000000002
   234   5      1.7050000000000001      18.755000000000003      56.265000000000001
   235   2                       0      17.050000000000001      57.969999999999999
   236   1      1.7050000000000001      18.755000000000003      59.674999999999997
   237   1                       0      17.050000000000001      61.380000000000003
   238   1      1.7050000000000001      18.755000000000003      63.085000000000001
   239   5                       0      17.050000000000001      64.790000000000006
   240   5      1.7050000000000001      18.755000000000003      66.495000000000005
   241   5                       0      20.460000000000001                       0
   242   2      1.7050000000000001      22.164999999999999      1.7050000000000001
   243   3                       0      20.460000000000001      3.4100000000000001
   244   2      1.7050000000000001      22.164999999999999      5.1150000000000002
   245   4                       0      20.460000000000001      6.8200000000000003
   246   2      1.7050000000000001      22.164999999999999      8.5250000000000004
   247   3                       0      20.460000000000001                   10.23
   248   4      1.7050000000000001      22.164999999999999                  11.935
   249   5                       0      20.460000000000001      13.640000000000001
   250   2      1.7050000000000001      22.164999999999999      15.345000000000001
   251   2                       0      20.460000000000001      17.050000000000001
   252   4      1.7050000000000001      22.164999999999999      18.755000000000003
   253   4                       0      20.460000000000001      20.460000000000001
   254   2      1.7050000000000001      22.164999999999999      22.164999999999999
   255   5                       0      20.460000000000001      23.870000000000001
   256   1      1.7050000000000001      22.164999999999999      25.575000000000003
   257   5                       0      20.460000000000001      27.280000000000001
   258   4      1.7050000000000001      22.164999999999999      28.984999999999999
   259   3                       0      20.460000000000001      30.690000000000001
   260   3      1.7050000000000001      22.164999999999999      32.395000000000003
   261   3                       0      20.460000000000001      34.100000000000001
   262   5      1.7050000000000001      22.164999999999999                  35.805
   263   1                       0      20.460000000000001      37.510000000000005
   264   3      1.7050000000000001      22.164999999999999      39.215000000000003
   265   1                       0      20.460000000000001      40.920000000000002
   266   2      1.7050000000000001      22.164999999999999                  42.625
   267   4                       0      20.460000000000001      44.329999999999998
   268   4      1.7050000000000001      22.164999999999999      46.034999999999997
   269   4                       0      20.460000000000001      47.740000000000002
   270   4      1.7050000000000001      22.164999999999999                  49.445
   271   5                       0      20.460000000000001      51.150000000000006
   272   4      1.7050000000000001      22.164999999999999      52.855000000000004
   273   3                       0      20.460000000000001      54.560000000000002
   274   1      1.7050000000000001      22.164999999999999      56.265000000000001
   275   3                       0      20.460000000000001      57.969999999999999
   276   2      1.7050000000000001      22.164999999999999      59.674999999999997
   277   1                       0      20.460000000000001      61.380000000000003
   278   3      1.7050000000000001      22.164999999999999      63.085000000000001
   279   5                       0      20.460000000000001      64.790000000000006
   280   5      1.7050000000000001      22.164999999999999      66.495000000000005
   281   2                       0      23.870000000000001                       0
   282   5      1.7050000000000001      25.575000000000003      1.7050000000000001
   283   1                       0      23.870000000000001      3.4100000000000001
   284   1      1.7050000000000001      25.575000000000003      5.1150000000000002
   285   3                       0      23.870000000000001      6.8200000000000003
   286   5      1.7050000000000001      25.575000000000003      8.5250000000000004
   287   3                       0      23.870000000000001                   10.23
   288   5      1.7050000000000001      25.575000000000003                  11.935
   289   5                       0      23.870000000000001      13.640000000000001
   290   2      1.7050000000000001      25.575000000000003      15.345000000000001
   291   2                       0      23.870000000000001      17.050000000000001
   292   1      1.7050000000000001      25.575000000000003      18.755000000000003
   293   2                       0      23.870000000000001      20.460000000000001
   294   1      1.7050000000000001      25.575000000000003      22.164999999999999
   295   1                       0      23.870000000000001      23.870000000000001
   296   5      1.7050000000000001      25.575000000000003      25.575000000000003
   297   4                       0      23.870000000000001      27.280000000000001
   298   1      1.7050000000000001      25.575000000000003      28.984999999999999
   299   1                       0      23.870000000000001      30.690000000000001
   300   4      1.7050000000000001      25.575000000000003      32.395000000000003
   301   5                       0      23.870000000000001      34.100000000000001
   302   2      1.7050000000000001      25.575000000000003                  35.805
   303   3                       0      23.870000000000001      37.510000000000005
   304   4      1.7050000000000001      25.575000000000003      39.215000000000003
   305   1                       0      23.870000000000001      40.920000000000002
   306   2      1.7050000000000001      25.575000000000003                  42.625
   307   3                       0      23.870000000000001      44.329999999999998
   308   4      1.7050000000000001      25.575000000000003      46.034999999999997
   309   4                       0      23.870000000000001      47.740000000000002
   310   5      1.7050000000000001      25.575000000000003                  49.445
   311   2                       0      23.870000000000001      51.150000000000006
   312   4      1.7050000000000001      25.575000000000003      52.855000000000004
   313   4                       0      23.870000000000001      54.560000000000002
   314   5      1.7050000000000001      25.575000000000003      56.265000000000001
   315   1                       0      23.870000000000001      57.969999999999999
   316   3      1.7050000000000001      25.575000000000003      59.674999999999997
   317   4                       0      23.870000000000001      61.380000000000003
   318   2      1.7050000000000001      25.575000000000003      63.085000000000001
   319   3                       0      23.870000000000001      64.790000000000006
   320   2      1.7050000000000001      25.575000000000003      66.495000000000005
   321   2                       0      27.280000000000001                       0
   322   3      1.7050000000000001      28.984999999999999      1.7050000000000001
   323   3                       0      27.280000000000001      3.4100000000000001
   324   3      1.7050000000000001      28.984999999999999      5.1150000000000002
   325   1                       0      27.280000000000001      6.8200000000000003
   326   5      1.7050000000000001      28.984999999999999      8.5250000000000004
   327   2                       0      27.280000000000001                   10.23
   328   5      1.7050000000000001      28.984999999999999                  11.935
   329   3                       0      27.280000000000001      13.640000000000001
   330   3      1.7050000000000001      28.984999999999999      15.345000000000001
   331   4                       0      27.280000000000001      17.050000000000001
   332   5      1.7050000000000001      28.984999999999999      18.755000000000003
   333   1                       0      27.280000000000001      20.460000000000001
   334   3      1.7050000000000001      28.984999999999999      22.164999999999999
   335   4                       0      27.280000000000001      23.870000000000001
   336   1      1.7050000000000001      28.984999999999999      25.575000000000003
   337   3                       0      27.280000000000001      27.280000000000001
   338   4      1.7050000000000001      28.984999999999999      28.984999999999999
   339   4                       0      27.280000000000001      30.690000000000001
   340   5      1.7050000000000001      28.984999999999999      32.395000000000003
   341   5                       0      27.280000000000001      34.100000000000001
   342   4      1.7050000000000001      28.984999999999999                  35.805
   343   3                       0      27.280000000000001      37.510000000000005
   344   2      1.7050000000000001      28.984999999999999      39.215000000000003
   345   2                       0      27.280000000000001      40.920000000000002
   346   4      1.7050000000000001      28.984999999999999                  42.625
   347   1                       0      27.280000000000001      44.329999999999998
   348   2      1.7050000000000001      28.984999999999999      46.034999999999997
   349   2                       0      27.280000000000001      47.740000000000002
   350   1      1.7050000000000001      28.984999999999999                  49.445
   351   1                       0      27.280000000000001      51.150000000000006
   352   1      1.7050000000000001      28.984999999999999      52.855000000000004
   353   1                       0      27.280000000000001      54.560000000000002
   354   5      1.7050000000000001      28.984999999999999      56.265000000000001
   355   4                       0      27.280000000000001      57.969999999999999
   356   3      1.7050000000000001      28.984999999999999      59.674999999999997
   357   5                       0      27.280000000000001      61.380000000000003
   358   4      1.7050000000000001      28.984999999999999      63.085000000000001
   359   4                       0      27.280000000000001      64.790000000000006