ITEM: TIMESTEP
0
ITEM: NUMBER OF ATOMS
16000
ITEM: BOX BOUNDS pp pp pp
0.0000000000000000e+00 6.6200000000000003e+01
0.0000000000000000e+00 6.6200000000000003e+01
0.0000000000000000e+00 6.6200000000000003e+01
ITEM: ATOMS id x y z
1 0.0531314 0.00815463 0.00198001
2 1.64087 1.61432 1.66372
3 0.0185383 66.1171 3.36434
4 1.70182 1.6261 4.93917
5 66.182 66.1828 6.65528
6 1.66717 1.64911 8.40488
7 66.1806 0.0932977 10.0173
8 1.68655 1.68677 11.5815
9 0.08013 0.0677543 13.115
10 1.60551 1.68795 14.8767
11 66.1967 0.0465102 16.5611
12 1.63459 1.64786 18.194
13 66.1889 0.0931969 19.8528
14 1.64525 1.6643 21.4801
15 0.0140549 0.0571043 23.0557
16 1.6672 1.63828 24.7617
17 0.020359 0.0842353 26.4848
18 1.76594 1.70772 28.1464
19 0.0553866 0.0599499 29.7103
20 1.80127 1.66224 31.4726
21 0.058071 0.0505128 33.1629
22 1.73657 1.71441 34.7803
23 0.00862155 0.051479 36.4385
24 1.67046 1.69424 37.959
25 0.0595366 0.0863336 39.6495
26 1.61608 1.70591 41.3597
27 66.1932 0.052222 43.0227
28 1.63526 1.64849 44.7046
29 0.0050921 0.0703516 46.3441
30 1.68384 1.62635 48.0145
31 66.1318 0.0367272 49.6602
32 1.65542 1.67861 51.2834
33 66.1548 66.1616 53.0031
34 1.64596 1.63826 54.7066
35 66.1976 66.1927 56.4
36 1.66787 1.79645 57.9492
37 0.0161882 0.0327508 59.3892
38 1.62193 1.7488 61.1913
39 66.1858 0.00539216 62.926
40 1.59435 1.68387 64.5053
41 66.1889 3.36351 66.1623
42 1.73363 5.02427 1.60157
43 0.0303378 3.37196 3.32791
44 1.73914 4.92056 4.91532
45 0.0519678 3.34629 6.65987
46 1.72768 4.98898 8.3623
47 0.0391383 3.25531 9.96532
48 1.65148 4.92636 11.5852
49 0.0214163 3.34025 13.1893
50 1.62751 4.88943 14.8924
51 0.0275201 3.32982 16.6171
52 1.68111 4.92306 18.2181
53 0.0138756 3.25984 19.8665
54 1.65958 4.98583 21.5355
55 66.181 3.25172 23.1053
56 1.60932 4.95888 24.8333
57 0.00305398 3.2519 26.4592
58 1.65952 4.88403 28.1195
59 0.0989764 3.34672 29.8157
60 1.68507 4.96896 31.5097
61 0.0427318 3.39256 33.1188
62 1.67434 4.96577 34.7606
63 66.1747 3.36292 36.4222
64 1.73749 4.92913 38.0341
65 0.0197977 3.30125 39.6653
66 1.60437 4.93758 41.3664
67 0.0266545 3.32522 43.0141
68 1.6358 4.94423 44.705
69 66.1939 3.32356 46.3873
70 1.60996 5.02862 48.0114
71 66.184 3.36018 49.6532
72 1.63314 5.0846 51.3256
73 0.0103014 3.35412 52.9597
74 1.64673 5.09205 54.6757
75 66.1779 3.37032 56.3209
76 1.68742 5.02974 57.9068
77 66.198 3.42665 59.5266
78 1.63039 5.00158 61.263
79 66.1613 3.42189 62.9012
80 1.65379 5.05286 64.4724
81 0.0478342 6.66785 66.1897
82 1.70852 8.33966 1.68175
83 0.120017 6.64412 3.36312
84 1.68919 8.36749 4.86666
85 0.0482656 6.62991 6.55935
86 1.6642 8.24002 8.24443
87 0.0145727 6.63883 9.91354
88 1.60375 8.27366 11.5684
89 0.0450146 6.57509 13.3055
90 1.6894 8.19576 14.9131
91 66.1845 6.5903 16.5796
92 1.74674 8.20043 18.2809
93 66.1863 6.58129 19.8799
94 1.71566 8.20902 21.5162
95 66.177 6.61589 23.138
96 1.67636 8.24726 24.7192
97 0.00509267 6.6463 26.5245
98 1.65711 8.29334 28.1252
99 0.065063 6.65686 29.7953
100 1.68911 8.204 31.4921
101 66.1958 6.64894 33.0792
102 1.63386 8.23737 34.8272
103 66.1575 6.58116 36.4207
104 1.65055 8.28308 38.0195
105 66.1737 6.56002 39.6657
106 1.62667 8.30205 41.3738
107 0.00259892 6.58982 43.0685
108 1.69562 8.29453 44.6744
109 0.0202166 6.58556 46.3315
110 1.57674 8.29154 47.9834
111 66.1919 6.63651 49.6763
112 1.59395 8.27062 51.3295
113 66.1099 6.70856 52.9446
114 1.62935 8.17826 54.5734
115 66.1869 6.66803 56.3219
116 1.69211 8.2566 57.9221
117 66.1537 6.63846 59.5845
118 1.56375 8.21848 61.2657
119 66.185 6.62913 62.8483
120 1.67216 8.23521 64.518
121 0.144508 9.90667 66.1954
122 1.76605 11.5517 1.64506
123 0.0637574 9.99548 3.3357
124 1.69435 11.5745 4.9218
125 66.183 9.90228 6.52402
126 1.5797 11.5801 8.2448
127 66.1958 9.88121 9.88384
128 1.59733 11.6054 11.5635
129 0.0475082 9.90877 13.278
130 1.64504 11.6495 14.8992
131 0.0717466 9.88787 16.5156
132 1.69816 11.6082 18.2628
133 0.00364831 9.88529 19.9234
134 1.65951 11.5748 21.468
135 66.1647 9.93319 23.1816
136 1.53554 11.5924 24.8702
137 66.1584 9.86544 26.4868
138 1.5884 11.6067 28.1121
139 66.1535 9.82439 29.7751
140 1.65065 11.5678 31.5066
141 66.1821 9.81881 33.1419
142 1.62547 11.6378 34.8032
143 66.1103 9.86918 36.377
144 1.67578 11.5861 37.8575
145 0.0240262 9.98627 39.6785
146 1.63564 11.5542 41.4891
147 66.1831 10.0027 43.1152
148 1.66779 11.5661 44.6856
149 66.1871 9.9618 46.2995
150 1.61129 11.6033 48.0145
151 0.00413798 9.91179 49.6483
152 1.58334 11.5805 51.2999
153 66.1356 9.92643 52.9689
154 1.58731 11.6539 54.5586
155 66.1601 9.88918 56.2068
156 1.59685 11.5338 57.9079
157 66.1862 9.87819 59.6278
158 1.61066 11.5038 61.2765
159 0.047515 9.88939 62.9068
160 1.70393 11.5526 64.7067
161 0.0280276 13.1664 0.0394038
162 1.67136 14.8551 1.53556
163 0.0862144 13.1492 3.30471
164 1.65832 14.8565 4.90964
165 0.0548853 13.2497 6.5547
166 1.54978 14.9128 8.20553
167 0.0243299 13.3029 9.88187
168 1.64399 14.9523 11.5696
169 0.0207385 13.3128 13.2206
170 1.64601 14.943 14.9116
171 0.0271969 13.2599 16.527
172 1.64976 14.8467 18.2397
173 66.0908 13.2408 19.9114
174 1.63963 14.8446 21.4839
175 66.1234 13.2181 23.1458
176 1.60165 14.7499 24.8623
177 66.1098 13.2026 26.5087
178 1.61278 14.8295 28.1687
179 66.1005 13.134 29.7869
180 1.63482 14.8432 31.4385
181 66.1249 13.2299 33.1268
182 1.63322 14.8212 34.7576
183 66.0806 13.2422 36.4217
184 1.67873 14.8293 38.038
185 0.039079 13.1876 39.7097
186 1.59687 14.8442 41.3776
187 0.0222938 13.1561 43.0715
188 1.65032 14.8692 44.7337
189 66.1194 13.2133 46.3602
190 1.64239 14.8459 48.0436
191 66.1782 13.3017 49.7082
192 1.62266 14.8739 51.2782
193 0.0156313 13.2644 52.9451
194 1.63208 14.8861 54.6175
195 66.1655 13.2357 56.2743
196 1.63395 14.9108 57.908
197 0.026025 13.2095 59.6489
198 1.63916 14.9535 61.2777
199 0.0379791 13.2425 62.9445
200 1.64549 14.9003 64.7369
201 66.0579 16.6563 0.022794
202 1.66688 18.2126 1.52885
203 0.0225475 16.5682 3.2483
204 1.65177 18.2068 4.96024
205 66.1604 16.5511 6.57069
206 1.59513 18.166 8.16685
207 66.1676 16.6044 9.90378
208 1.67679 18.1535 11.7062
209 0.0502359 16.5336 13.2842
210 1.6856 18.1748 14.8489
211 0.00775175 16.559 16.5595
212 1.62989 18.1869 18.1864
213 66.1705 16.5581 19.821
214 1.60464 18.2073 21.4774
215 66.1169 16.5009 23.2143
216 1.67673 18.2647 24.8282
217 66.1111 16.5256 26.4016
218 1.60177 18.2293 28.1405
219 66.1594 16.5524 29.8203
220 1.62897 18.1739 31.4352
221 66.1391 16.5296 33.1057
222 1.56996 18.1661 34.7304
223 66.1681 16.4966 36.4046
224 1.63923 18.166 38.1093
225 0.00585595 16.4726 39.711
226 1.63714 18.1579 41.3726
227 66.1965 16.5229 43.0887
228 1.64716 18.2276 44.7797
229 66.1638 16.5686 46.4413
230 1.64731 18.202 48.0502
231 0.00914369 16.5088 49.556
232 1.67263 18.2187 51.256
233 0.0076491 16.452 52.9483
234 1.6424 18.2265 54.58
235 0.0150261 16.5423 56.24
236 1.65374 18.229 58.0061
237 66.1787 16.669 59.6463
238 1.66156 18.1993 61.2698
239 66.1613 16.6013 62.9545
240 1.6238 18.1973 64.6432
241 66.088 19.7744 66.1924
242 1.75438 21.448 1.55734
243 66.1729 19.827 3.22393
244 1.69973 21.4085 4.95986
245 66.1003 19.8104 6.63717
246 1.60384 21.4505 8.20431
247 0.0179254 19.8176 9.96984
248 1.60461 21.4536 11.6274
249 0.0160701 19.7876 13.2766
250 1.62045 21.4516 14.8619
251 0.0317572 19.8333 16.5581
252 1.62864 21.5461 18.1755
253 66.192 19.8967 19.6872
254 1.63315 21.5 21.4734
255 66.1865 19.9032 23.2014
256 1.67851 21.5071 24.805
257 0.00113303 19.9136 26.4327
258 1.63451 21.5092 28.1125
259 66.1604 19.903 29.7474
260 1.58186 21.4852 31.4397
261 66.1497 19.8268 33.0923
262 1.54745 21.4808 34.7851
263 66.1326 19.8127 36.4254
264 1.68778 21.4571 38.0778
265 66.1324 19.848 39.7568
266 1.56016 21.4929 41.4147
267 66.1728 19.8589 43.063
268 1.60661 21.4932 44.7197
269 66.1876 19.8506 46.3676
270 1.60179 21.4774 48.0839
271 0.0297176 19.837 49.67
272 1.66942 21.5448 51.3021
273 66.1695 19.9215 52.9107
274 1.65089 21.5409 54.6164
275 66.1817 19.8591 56.2871
276 1.68811 21.5389 57.9607
277 66.1829 19.7628 59.6358
278 1.72158 21.4588 61.2259
279 66.1454 19.7659 62.8771
280 1.68025 21.4474 64.5335
281 66.1645 23.0462 66.1887
282 1.69436 24.7596 1.64958
283 0.0283612 23.0213 3.28173
284 1.6408 24.7752 4.94638
285 66.133 23.1172 6.60692
286 1.65084 24.8301 8.22078
287 0.00563436 23.1127 9.90999
288 1.62658 24.7787 11.5784
289 0.00232969 23.169 13.283
290 1.63791 24.8389 14.9096
291 66.191 23.1573 16.5415
292 1.63681 24.8001 18.2255
293 66.1765 23.1835 19.7817
294 1.6483 24.8423 21.4996
295 0.0707968 23.1951 23.196
296 1.66959 24.8224 24.7898
297 0.0676722 23.1297 26.4423
298 1.62752 24.7784 28.0758
299 66.1874 23.099 29.7073
300 1.64159 24.7233 31.3828
301 66.1548 23.1752 33.0887
302 1.6415 24.8109 34.7613
303 66.1092 23.1932 36.4804
304 1.61652 24.8512 38.0678
305 66.1045 23.1052 39.6996
306 1.5535 24.8039 41.3965
307 66.1353 23.1803 43.119
308 1.64259 24.7933 44.7652
309 66.1475 23.1696 46.341
310 1.61932 24.7866 47.9645
311 66.1116 23.184 49.7609
312 1.62522 24.8505 51.3455
313 66.1426 23.1619 52.9435
314 1.63055 24.8205 54.5679
315 66.1947 23.1685 56.189
316 1.61836 24.8503 57.9149
317 66.1928 23.1508 59.6281
318 1.67113 24.865 61.2429
319 66.1067 23.1231 62.9104
320 1.65654 24.7833 64.56
321 66.1914 26.5431 0.00216732
322 1.62891 28.187 1.71686
323 66.1456 26.557 3.33173
324 1.62377 28.1634 4.93685
325 66.165 26.5191 6.55873
326 1.64434 28.0683 8.30663
327 66.1765 26.4372 9.9327
328 1.63699 28.1121 11.5829
329 0.00670324 26.4544 13.2218
330 1.57883 28.1812 14.9043
331 66.1811 26.4537 16.5832
332 1.55382 28.1736 18.1942
333 66.1598 26.4252 19.8305
334 1.56894 28.1496 21.478
335 66.1908 26.4504 23.1187
336 1.60943 28.124 24.755
337 0.0464628 26.4347 26.3975
338 1.62272 28.1536 28.0951
339 66.1783 26.4681 29.7908
340 1.64121 28.198 31.4197
341 0.00549513 26.4894 33.0978
342 1.66207 28.2192 34.8446
343 66.0864 26.4474 36.3501
344 1.58636 28.1753 38.0727
345 66.0935 26.5024 39.7216
346 1.56957 28.1412 41.4285
347 66.0806 26.444 43.1969
348 1.64384 28.1444 44.7146
349 66.0955 26.4518 46.2772
350 1.65741 28.1296 47.9668
351 66.1407 26.5045 49.68
352 1.63304 28.1197 51.3613
353 66.0957 26.4838 52.9379
354 1.62702 28.0299 54.5571
355 66.147 26.4759 56.1577
356 1.64033 27.9557 57.9378
357 66.1317 26.4569 59.6456
358 1.69259 28.0538 61.2261
359 0.0100072 26.5027 62.9312
360 1.66272 28.1402 64.492
361 66.1764 29.7751 0.0378284
362 1.65481 31.4725 1.71018
363 0.0380922 29.8222 3.38501
364 1.66566 31.5022 4.96087
365 0.04377 29.8495 6.59073
366 1.6489 31.5265 8.34946
367 0.00637209 29.815 9.96729
368 1.62182 31.4727 11.5665
369 0.0175058 29.8069 13.1789
370 1.62858 31.4278 14.9568
371 66.1655 29.818 16.596
372 1.66644 31.4583 18.1978
373 66.1728 29.8354 19.7947
374 1.5391 31.3856 21.4925
375 66.1758 29.7855 23.189
376 1.66323 31.4179 24.7777
377 0.000465198 29.8315 26.438
378 1.69156 31.4574 28.0853
379 0.0250136 29.8546 29.719
380 1.7061 31.5755 31.4744
381 0.0422981 29.8423 33.1145
382 1.6289 31.5254 34.7005
383 66.1983 29.8553 36.4004
384 1.60809 31.5265 38.106
385 66.1756 29.9264 39.7736
386 1.68021 31.5124 41.4343
387 66.1736 29.8677 43.0863
388 1.7369 31.433 44.7558
389 66.1708 29.8389 46.3759
390 1.69301 31.4733 48.0231
391 66.1603 29.7694 49.6555
392 1.62571 31.4431 51.2695
393 66.1124 29.7535 52.9489
394 1.5892 31.4437 54.5532
395 66.1682 29.7738 56.2442
396 1.64161 31.4113 57.951
397 66.1939 29.7447 59.5596
398 1.66473 31.3761 61.2255
399 66.1789 29.7365 62.9056
400 1.73463 31.4045 64.5289
401 0.0132501 33.0637 0.0300843
402 1.73851 34.6912 1.73374
403 0.0994375 33.0194 3.35108
404 1.69899 34.691 4.97919
405 0.0661311 33.0706 6.67949
406 1.68344 34.7069 8.33045
407 66.1478 33.1005 9.94273
408 1.74702 34.8552 11.4951
409 0.019303 33.1405 13.1976
410 1.72453 34.7547 14.9311
411 66.157 33.0297 16.5717
412 1.66729 34.7586 18.1521
413 66.1672 33.0624 19.8809
414 1.64027 34.7577 21.513
415 66.1771 33.0429 23.1708
416 1.65878 34.7954 24.8025
417 0.0229143 33.0626 26.4364
418 1.72552 34.8328 28.1182
419 0.0336143 33.0868 29.7555
420 1.65843 34.7982 31.4264
421 0.0303009 33.1454 33.0552
422 1.6142 34.6949 34.6722
423 0.0362717 33.1308 36.3688
424 1.57222 34.723 38.1684
425 0.0978032 33.022 39.8301
426 1.68647 34.7866 41.3741
427 0.0671853 33.1223 43.0886
428 1.67995 34.8282 44.7229
429 0.0141201 33.0667 46.359
430 1.62365 34.7142 47.9715
431 66.1781 33.0422 49.6758
432 1.65624 34.7049 51.3116
433 0.0147216 33.0875 52.9504
434 1.63077 34.7471 54.5723
435 66.188 33.0208 56.2285
436 1.60688 34.7557 57.8663
437 66.1737 33.0617 59.5725
438 1.63316 34.7865 61.2026
439 0.0258995 33.0752 62.8741
440 1.71528 34.7199 64.656
441 66.1775 36.3599 0.0762321
442 1.66991 38.0106 1.72654
443 0.0446302 36.422 3.34802
444 1.63126 38.0905 5.00088
445 0.0808885 36.3905 6.69052
446 1.66582 38.0757 8.35124
447 0.0524054 36.4064 9.91389
448 1.73858 38.0019 11.5128
449 0.101348 36.4431 13.2254
450 1.74082 38.1455 14.9161
451 0.0051075 36.464 16.4929
452 1.66387 38.1044 18.1588
453 66.1719 36.3847 19.8975
454 1.55991 38.0254 21.4884
455 66.1469 36.4496 23.1029
456 1.69261 38.0109 24.8121
457 0.0530373 36.4518 26.4951
458 1.70521 38.0162 28.129
459 0.029796 36.4235 29.7799
460 1.65352 38.0296 31.4225
461 66.1916 36.4363 33.1021
462 1.60909 38.0616 34.7124
463 0.0353556 36.4427 36.396
464 1.64813 38.0217 38.1518
465 0.0434099 36.475 39.7653
466 1.73539 38.1017 41.4157
467 0.0926455 36.3969 43.0506
468 1.73069 37.985 44.6348
469 0.0306958 36.4483 46.3119
470 1.67776 38.0677 48.0373
471 66.1248 36.4006 49.6897
472 1.70775 38.0469 51.3233
473 66.154 36.3481 52.9912
474 1.64838 38.0047 54.6348
475 0.0569549 36.3609 56.2066
476 1.62464 38.0495 57.866
477 66.1847 36.4078 59.5592
478 1.67419 38.0537 61.204
479 66.18 36.4021 62.7851
480 1.65883 38.0486 64.4961
481 0.036884 39.6647 66.1954
482 1.651 41.3815 1.67466
483 66.1851 39.7121 3.37081
484 1.66723 41.3643 4.94031
485 0.0208455 39.7236 6.64343
486 1.63104 41.3005 8.35626
487 0.0443554 39.6808 9.95219
488 1.61041 41.3124 11.531
489 0.0259154 39.6443 13.1888
490 1.67569 41.2607 14.8906
491 66.194 39.6986 16.5324
492 1.65101 41.3036 18.145
493 66.1566 39.692 19.8455
494 1.63349 41.3485 21.4975
495 66.1665 39.5971 23.132
496 1.66988 41.315 24.7766
497 0.0437798 39.7071 26.439
498 1.65171 41.3715 28.0967
499 66.1831 39.6797 29.7974
500 1.62258 41.3278 31.4063
501 66.1452 39.6868 33.1419
502 1.58887 41.293 34.7549
503 0.0550992 39.6468 36.4464
504 1.65652 41.3323 38.0869
505 0.033373 39.7157 39.7222
506 1.75694 41.3158 41.4378
507 66.1567 39.6949 43.0965
508 1.67002 41.3585 44.7025
509 66.143 39.6736 46.3289
510 1.65771 41.3779 47.9908
511 66.1719 39.686 49.6656
512 1.70336 41.3066 51.2585
513 66.179 39.6417 52.9107
514 1.64601 41.2882 54.6154
515 0.0120725 39.6899 56.2602
516 1.6617 41.3081 57.9169
517 66.1241 39.6913 59.5719
518 1.65316 41.3847 61.164
519 66.1884 39.7088 62.8464
520 1.65703 41.4092 64.5446
521 66.198 43.0321 66.1844
522 1.6426 44.6935 1.69941
523 66.1579 42.9982 3.32431
524 1.65752 44.6858 4.95727
525 66.1915 42.9533 6.65151
526 1.65279 44.7064 8.29674
527 66.1958 43.005 9.97076
528 1.63808 44.5872 11.6086
529 66.1944 42.9373 13.2012
530 1.68294 44.6171 14.8798
531 0.000261339 42.9525 16.5115
532 1.67107 44.6686 18.1645
533 66.146 43.0205 19.8072
534 1.70561 44.6599 21.4578
535 0.0177377 43.0551 23.1469
536 1.63759 44.7602 24.8081
537 66.1878 43.0823 26.4609
538 1.66063 44.6654 28.0996
539 66.1183 43.0364 29.7802
540 1.6811 44.7271 31.425
541 66.176 43.0378 33.1127
542 1.6774 44.7018 34.8235
543 0.0151849 42.981 36.4282
544 1.64473 44.6524 37.9983
545 66.1915 42.9165 39.7267
546 1.65219 44.6138 41.374
547 0.0132106 42.9746 43.0714
548 1.61325 44.6813 44.6601
549 66.1441 43.0198 46.3187
550 1.65497 44.6437 48.0118
551 66.1943 43.0577 49.7258
552 1.70089 44.6792 51.2881
553 0.0229433 43.0819 52.8185
554 1.66573 44.6791 54.5677
555 66.183 43.047 56.3099
556 1.72531 44.6736 57.9278
557 0.00346013 43.013 59.5551
558 1.61442 44.638 61.2675
559 0.00313121 43.0089 62.8691
560 1.60413 44.6441 64.5572
561 66.1783 46.3125 66.1686
562 1.60653 48.0307 1.65251
563 0.0176788 46.3764 3.33297
564 1.66796 47.9791 4.94634
565 0.0222472 46.4011 6.58896
566 1.6485 47.9962 8.314
567 66.1661 46.3085 10.0158
568 1.62894 48.0588 11.7078
569 66.1792 46.3041 13.2376
570 1.70665 48.0282 14.8485
571 66.1914 46.3072 16.4219
572 1.67066 47.9383 18.1635
573 0.0181921 46.3192 19.8418
574 1.71354 47.9168 21.4276
575 0.00757707 46.3327 23.1314
576 1.63802 47.9971 24.8651
577 66.1411 46.3154 26.5174
578 1.67633 48.0023 28.1219
579 66.1265 46.2813 29.6803
580 1.6453 47.9742 31.4264
581 66.1641 46.3333 33.1881
582 1.63551 48.0049 34.8487
583 0.00571664 46.3177 36.4452
584 1.65014 47.9816 37.9759
585 0.0722615 46.4119 39.7313
586 1.7074 48.0045 41.4428
587 0.0557853 46.366 43.0217
588 1.68419 48.0061 44.6233
589 0.0023793 46.3413 46.3526
590 1.66323 47.961 48.0631
591 66.18 46.2456 49.7203
592 1.71161 48.0236 51.2472
593 0.0326623 46.3327 52.8857
594 1.68794 48.0015 54.6441
595 66.1819 46.3128 56.2858
596 1.69834 48.0206 57.8958
597 0.0279719 46.3518 59.5983
598 1.68804 48.0208 61.2222
599 0.0352376 46.3567 62.891
600 1.67026 48.0514 64.5941
601 0.00686552 49.6445 66.1662
602 1.64047 51.2421 1.65556
603 0.0238476 49.6238 3.38349
604 1.73502 51.3194 4.99018
605 0.0284307 49.6358 6.54378
606 1.6507 51.3163 8.33153
607 66.1531 49.6174 10.0364
608 1.64746 51.2877 11.6674
609 66.1598 49.6015 13.2482
610 1.6545 51.2306 14.7922
611 0.0273751 49.6689 16.526
612 1.75179 51.1889 18.2221
613 0.0550586 49.6316 19.8778
614 1.68571 51.3014 21.4815
615 0.0772502 49.6028 23.0886
616 1.6213 51.3257 24.8362
617 66.138 49.6444 26.5331
618 1.51935 51.3798 28.0927
619 66.1703 49.6884 29.7628
620 1.57874 51.3616 31.4981
621 0.0262908 49.6344 33.1289
622 1.56623 51.3224 34.7808
623 66.176 49.6689 36.4622
624 1.63865 51.3188 38.0787
625 0.020256 49.6812 39.6941
626 1.68705 51.3171 41.3471
627 0.0221323 49.5599 42.9876
628 1.68892 51.2732 44.6222
629 66.1716 49.6191 46.3713
630 1.64702 51.2789 48.0265
631 66.1463 49.6798 49.5866
632 1.63221 51.2857 51.2827
633 0.0399566 49.585 52.9673
634 1.66271 51.3174 54.624
635 0.000410223 49.6202 56.2265
636 1.69162 51.3357 57.8441
637 66.1932 49.6062 59.5811
638 1.71853 51.275 61.1283
639 0.0546169 49.6839 62.8918
640 1.67108 51.2925 64.6263
641 0.0712688 52.8251 0.013454
642 1.64057 54.5686 1.68107
643 66.1722 52.882 3.33202
644 1.66516 54.6272 4.99738
645 66.1384 52.9362 6.64617
646 1.63536 54.6571 8.31809
647 66.1165 53.0291 9.96154
648 1.65827 54.6293 11.5912
649 66.1118 53.0137 13.238
650 1.63638 54.6493 14.8927
651 0.000925315 52.9313 16.5641
652 1.65264 54.7466 18.1975
653 0.00354961 52.9771 19.7522
654 1.62402 54.6472 21.5087
655 66.1823 53.0007 23.2007
656 1.65052 54.6532 24.8474
657 66.0824 53.0198 26.4474
658 1.57645 54.6297 28.0809
659 66.1374 52.9785 29.816
660 1.58777 54.5804 31.4125
661 66.1956 53.0287 33.1038
662 1.49638 54.6204 34.8514
663 0.00260783 52.9483 36.4711
664 1.65013 54.6215 38.0998
665 0.0260955 52.9437 39.7262
666 1.7783 54.5686 41.2526
667 0.0366062 52.9577 42.9128
668 1.67308 54.5971 44.6487
669 0.0645719 52.9432 46.3606
670 1.6656 54.6519 48.0163
671 0.0388833 52.9892 49.6295
672 1.65141 54.6366 51.2196
673 0.0327773 53.0142 52.9522
674 1.69451 54.675 54.684
675 66.1383 53.0898 56.2313
676 1.67431 54.6448 57.875
677 0.00532794 53.0297 59.5503
678 1.64102 54.6894 61.2693
679 0.0723199 52.8822 62.9229
680 1.62253 54.6097 64.6195
681 0.102886 56.3124 0.0173404
682 1.68723 57.9583 1.72864
683 0.09021 56.2978 3.35366
684 1.67092 57.9214 5.04354
685 66.1428 56.2989 6.7221
686 1.67029 57.9668 8.3182
687 66.1431 56.2469 9.91475
688 1.65452 57.9773 11.5508
689 66.1737 56.268 13.1933
690 1.62872 57.964 14.9077
691 66.1353 56.2612 16.546
692 1.67898 57.9833 18.2041
693 66.1785 56.2739 19.8649
694 1.60745 57.9269 21.5323
695 66.079 56.3044 23.2287
696 1.66354 57.8897 24.8145
697 66.1422 56.3186 26.4545
698 1.61936 57.9354 28.1393
699 66.1528 56.293 29.8013
700 1.57231 57.925 31.3734
701 66.1537 56.2904 33.1037
702 1.66123 57.9502 34.7522
703 0.0372967 56.3091 36.4575
704 1.68023 57.9727 38.1571
705 66.1988 56.2916 39.7357
706 1.72946 58.0458 41.2941
707 0.0588618 56.3187 42.9922
708 1.6679 57.9514 44.732
709 0.0189523 56.3316 46.3268
710 1.63437 57.991 48.0107
711 66.1972 56.2473 49.6688
712 1.63168 57.9866 51.3108
713 0.0382428 56.1869 52.961
714 1.64425 57.9185 54.6157
715 66.1577 56.2697 56.231
716 1.66588 57.9169 57.8898
717 0.0197954 56.2745 59.5976
718 1.64228 57.9322 61.3298
719 0.0171919 56.2987 62.9032
720 1.59277 57.914 64.5166
721 0.0542368 59.6321 0.0303336
722 1.7024 61.318 1.67452
723 0.0174394 59.6136 3.34857
724 1.64458 61.2657 4.99135
725 0.0036168 59.6365 6.62278
726 1.66453 61.2178 8.31652
727 66.1851 59.6168 9.97953
728 1.756 61.2145 11.5821
729 66.1888 59.6729 13.1986
730 1.68861 61.2283 14.9046
731 0.00538215 59.6642 16.5449
732 1.63962 61.304 18.2384
733 66.1788 59.596 19.8278
734 1.62254 61.2335 21.4805
735 66.097 59.5826 23.1559
736 1.61788 61.2639 24.8175
737 66.1952 59.5833 26.4656
738 1.6498 61.2718 28.1328
739 66.1548 59.5922 29.7423
740 1.61455 61.2882 31.4251
741 66.1525 59.5253 33.0826
742 1.60885 61.2888 34.7578
743 66.1935 59.5729 36.4322
744 1.61337 61.2966 38.0845
745 66.1502 59.5543 39.6513
746 1.61436 61.201 41.3545
747 0.00643995 59.5338 43.0635
748 1.66987 61.2297 44.667
749 0.0623874 59.5322 46.3049
750 1.6286 61.2095 47.9503
751 0.0567399 59.5986 49.6287
752 1.65927 61.2008 51.3666
753 0.104503 59.5659 53.0319
754 1.6465 61.2831 54.6425
755 66.1731 59.6182 56.2835
756 1.6487 61.3508 57.8699
757 0.0712804 59.5735 59.597
758 1.63018 61.2311 61.3479
759 0.031631 59.5772 62.9112
760 1.72894 61.3305 64.5425
761 0.0140102 62.9395 66.195
762 1.67361 64.5722 1.65924
763 0.00923619 62.9149 3.36513
764 1.64227 64.5712 4.94118
765 0.00225283 62.9088 6.6297
766 1.65071 64.5898 8.35521
767 0.0195288 62.8765 9.97404
768 1.68238 64.616 11.5603
769 0.0228088 62.9036 13.2161
770 1.64055 64.6257 14.8471
771 66.17 62.9135 16.4362
772 1.61062 64.5931 18.2183
773 66.1818 63.0089 19.8753
774 1.62205 64.6343 21.4463
775 66.1545 62.9094 23.1402
776 1.64971 64.6076 24.7893
777 66.1856 62.9144 26.5138
778 1.68565 64.5782 28.1256
779 66.1815 62.9474 29.7274
780 1.67683 64.6413 31.4513
781 66.1885 62.9512 33.1197
782 1.68784 64.6379 34.7622
783 66.17 62.9584 36.4424
784 1.6251 64.5867 38.0375
785 66.1389 62.9509 39.5817
786 1.62272 64.6581 41.3272
787 66.1393 62.9761 43.0544
788 1.66315 64.619 44.6957
789 0.0292142 62.9474 46.2579
790 1.68383 64.5868 48.0448
791 66.1893 62.8805 49.6838
792 1.71811 64.5425 51.2905
793 0.0106058 62.9665 52.9916
794 1.68337 64.5166 54.6897
795 65.9774 62.9387 56.3473
796 1.69616 64.4225 57.8753
797 66.1543 62.9292 59.5273
798 1.62421 64.5884 61.195
799 0.00959037 62.9984 62.9243
800 1.68049 64.5381 64.5974
801 3.30099 66.1848 66.1452
802 4.96094 1.64352 1.59221
803 3.31897 0.0126403 3.30478
804 5.02115 1.68319 4.98957
805 3.35259 66.1827 6.69578
806 4.88178 1.69632 8.28588
807 3.35186 0.0224863 9.96079
808 4.86541 1.68175 11.6123
809 3.27015 0.0145412 13.2256
810 4.90229 1.67559 14.8997
811 3.2668 0.0638289 16.5188
812 4.87188 1.70601 18.1516
813 3.2186 0.0922147 19.8695
814 4.91838 1.70689 21.4889
815 3.27891 0.0492365 23.1078
816 4.91582 1.54922 24.7945
817 3.32411 0.0602121 26.5512
818 4.95108 1.70582 28.1989
819 3.31558 0.0747703 29.7928
820 4.90906 1.70249 31.4642
821 3.38904 0.0786644 33.1674
822 4.88829 1.79318 34.8372
823 3.27886 0.071245 36.3619
824 4.9059 1.80021 37.9316
825 3.25929 0.152949 39.6848
826 4.92933 1.67562 41.3257
827 3.22974 0.0240396 43.0382
828 4.90012 1.65732 44.6933
829 3.3017 66.1474 46.3086
830 4.91918 1.64104 48.013
831 3.37801 0.0697364 49.63
832 4.95075 1.74751 51.2871
833 3.32662 0.0777159 52.9566
834 4.99554 1.73816 54.698
835 3.24838 66.1807 56.4213
836 4.95583 1.73443 57.8636
837 3.25772 66.1871 59.5189
838 4.89261 1.68765 61.2212
839 3.28483 0.0120861 62.9389
840 4.9406 1.70544 64.5683
841 3.29907 3.31684 66.1683
842 4.95163 5.01552 1.5368
843 3.36472 3.34445 3.22375
844 5.02074 4.99641 4.8982
845 3.32119 3.3353 6.63923
846 4.87019 4.99585 8.36285
847 3.2857 3.28605 9.97758
848 4.91795 4.91924 11.6117
849 3.24376 3.28972 13.2399
850 4.90011 4.9297 14.9479
851 3.25723 3.3096 16.5689
852 4.88541 4.91938 18.171
853 3.26053 3.31031 19.8071
854 4.92942 4.93582 21.48
855 3.32778 3.29143 23.184
856 4.87492 5.0767 24.8159
857 3.37505 3.29142 26.4235
858 4.94073 4.96091 28.1713
859 3.32058 3.34285 29.8575
860 4.91457 4.97294 31.4764
861 3.33444 3.32135 33.1577
862 4.97112 4.93355 34.779
863 3.27123 3.3744 36.3416
864 4.99713 4.91966 37.9972
865 3.2649 3.26336 39.6641
866 5.00016 4.92908 41.3271
867 3.24106 3.2821 42.9962
868 4.95952 4.97462 44.6844
869 3.19466 3.33534 46.3359
870 4.86252 5.04483 47.8988
871 3.2591 3.45069 49.6055
872 4.89968 5.00948 51.4056
873 3.25028 3.37768 53.0229
874 4.96846 4.97872 54.6495
875 3.30563 3.41479 56.3224
876 4.96354 5.02666 57.8935
877 3.30988 3.42196 59.5016
878 4.97237 4.98889 61.251
879 3.31258 3.34668 62.9715
880 5.00182 5.0648 64.6525
881 3.28437 6.69433 0.0150486
882 4.92961 8.29093 1.61459
883 3.29348 6.63487 3.23441
884 5.02055 8.2754 4.8628
885 3.30725 6.62876 6.51828
886 4.94741 8.22868 8.30409
887 3.29095 6.6119 9.99239
888 4.88894 8.19994 11.5956
889 3.20812 6.60073 13.213
890 4.91609 8.20282 14.9126
891 3.29083 6.51068 16.6133
892 4.90046 8.21473 18.2548
893 3.30286 6.54879 19.8731
894 4.89889 8.2289 21.543
895 3.29823 6.64015 23.1354
896 4.9115 8.24738 24.7488
897 3.24635 6.64574 26.496
898 4.96144 8.24323 28.1943
899 3.20364 6.57834 29.8264
900 4.98628 8.25821 31.4826
901 3.28888 6.60421 33.1974
902 5.03783 8.21854 34.765
903 3.34745 6.55314 36.3557
904 5.02395 8.20882 38.0072
905 3.32597 6.60547 39.7087
906 4.96005 8.3145 41.2665
907 3.37523 6.66121 43.044
908 4.97826 8.34316 44.748
909 3.22506 6.64627 46.3384
910 4.94096 8.29617 47.9149
911 3.28043 6.67918 49.6367
912 4.88334 8.27488 51.4312
913 3.31396 6.65946 53.0063
914 4.92841 8.30816 54.6168
915 3.32782 6.60375 56.2238
916 4.95042 8.33008 57.8508
917 3.32556 6.62158 59.5823
918 5.0772 8.32584 61.2668
919 3.34712 6.71827 62.927
920 5.00437 8.28975 64.635
921 3.36756 9.91845 66.1907
922 4.95078 11.572 1.61786
923 3.32911 9.9406 3.28625
924 4.97339 11.5752 4.89868
925 3.31154 9.9698 6.59047
926 5.01987 11.7063 8.28477
927 3.31386 9.93677 9.91837
928 4.95277 11.6986 11.4979
929 3.29687 9.94113 13.214
930 4.91831 11.6292 14.8951
931 3.28856 9.88585 16.5431
932 4.90346 11.533 18.2302
933 3.30443 9.83387 19.907
934 4.93318 11.4908 21.4292
935 3.32073 9.88018 23.1378
936 4.9848 11.5209 24.8891
937 3.26607 9.88992 26.5033
938 5.03361 11.5555 28.2086
939 3.24283 9.92198 29.7728
940 4.99969 11.5341 31.4447
941 3.30714 9.87149 33.1669
942 5.03331 11.5985 34.7538
943 3.42651 9.88396 36.3677
944 4.98985 11.63 38.0593
945 3.3132 9.9728 39.7196
946 5.04196 11.6069 41.3117
947 3.3997 9.96976 43.0244
948 4.98258 11.5352 44.6306
949 3.34719 9.98294 46.3063
950 4.98713 11.602 48.0638
951 3.2875 9.93289 49.6652
952 4.96653 11.6014 51.3011
953 3.27459 9.91317 52.9578
954 4.98465 11.5294 54.6236
955 3.28131 9.92259 56.1512
956 5.0227 11.5183 57.9126
957 3.30998 9.91061 59.656
958 5.02333 11.5667 61.2509
959 3.31372 9.92443 62.9473
960 4.96134 11.5771 64.5911
961 3.40302 13.1816 0.00427624
962 5.00947 14.8188 1.62146
963 3.33249 13.1929 3.27086
964 5.02746 14.8826 4.89951
965 3.27705 13.2334 6.55751
966 5.01313 14.8551 8.25971
967 3.17314 13.3187 9.91016
968 4.9735 14.9043 11.5254
969 3.21817 13.3174 13.2097
970 4.88397 14.9576 14.854
971 3.32309 13.316 16.5081
972 4.91581 14.8901 18.1658
973 3.34861 13.235 19.826
974 4.93877 14.8318 21.4708
975 3.30754 13.1134 23.1735
976 4.94332 14.7919 24.904
977 3.28787 13.0778 26.5578
978 4.93232 14.7712 28.1781
979 3.32942 13.187 29.7792
980 4.96643 14.8504 31.4613
981 3.37697 13.253 33.0841
982 5.03912 14.815 34.7827
983 3.41356 13.2196 36.4017
984 5.05037 14.7655 38.0605
985 3.26854 13.1791 39.8022
986 5.03403 14.7553 41.2878
987 3.38543 13.2228 42.9942
988 5.0263 14.8978 44.7255
989 3.39333 13.2013 46.3094
990 4.96547 14.8776 48.0339
991 3.34993 13.2427 49.6703
992 4.96235 14.909 51.2736
993 3.25375 13.2634 52.9197
994 4.96467 14.9002 54.6585
995 3.26819 13.215 56.2797
996 4.98848 14.8632 57.9261
997 3.28125 13.2246 59.6501
998 5.07749 14.8737 61.3078
999 3.30191 13.2242 62.9487
1000 5.05815 14.7983 64.6215
1001 3.56579 16.54 66.1998
1002 5.00702 18.1934 1.68218
1003 3.28502 16.4955 3.24006
1004 4.9868 18.1312 4.94229
1005 3.29777 16.473 6.57113
1006 5.00061 18.1284 8.27295
1007 3.22273 16.5549 9.8997
1008 4.90753 18.1886 11.6024
1009 3.25943 16.4704 13.2445
1010 4.87476 18.1775 14.8368
1011 3.30973 16.5423 16.4764
1012 4.96753 18.2358 18.2059
1013 3.29213 16.5156 19.7929
1014 4.95646 18.2272 21.5145
1015 3.28604 16.536 23.1965
1016 4.95039 18.2261 24.8772
1017 3.27457 16.5267 26.5149
1018 4.95434 18.1944 28.1197
1019 3.35507 16.4826 29.8086
1020 4.96373 18.1905 31.4434
1021 3.33384 16.5052 33.1154
1022 5.06027 18.1333 34.7744
1023 3.32182 16.479 36.4105
1024 5.01836 18.189 38.0366
1025 3.3443 16.4338 39.7181
1026 4.96921 18.1815 41.3914
1027 3.32903 16.458 43.0559
1028 4.99832 18.1621 44.7692
1029 3.28975 16.5 46.3678
1030 4.84613 18.1874 48.0352
1031 3.27606 16.4982 49.6475
1032 4.87841 18.2932 51.3255
1033 3.27985 16.5251 52.9508
1034 4.95489 18.2319 54.5724
1035 3.30352 16.5971 56.249
1036 4.92696 18.1992 57.9395
1037 3.32938 16.5619 59.6668
1038 4.96358 18.2173 61.3373
1039 3.32213 16.5122 62.9687
1040 5.03575 18.218 64.4881
1041 3.43292 19.7336 66.1641
1042 4.9825 21.5245 1.62363
1043 3.40131 19.8368 3.27753
1044 4.96408 21.4893 4.93325
1045 3.34647 19.8464 6.64395
1046 4.99112 21.4736 8.23171
1047 3.24461 19.8474 9.92164
1048 4.92779 21.4592 11.6227
1049 3.24934 19.8412 13.2403
1050 4.95136 21.4939 14.8021
1051 3.29903 19.8773 16.5391
1052 5.00617 21.5558 18.2658
1053 3.31201 19.9368 19.8462
1054 4.99096 21.5986 21.542
1055 3.3253 19.9469 23.1485
1056 4.95643 21.5188 24.8296
1057 3.24389 19.9495 26.5522
1058 4.91428 21.5309 28.09
1059 3.26828 19.9023 29.7095
1060 4.94284 21.492 31.4223