(written by ASE)

16000 atoms
5 atom types

0.0      66.200000000000003  xlo xhi
0.0      66.200000000000003  ylo yhi
0.0      66.200000000000003  zlo zhi

Atoms # atomic

     1   4                       0                       0                       0
     2   1                   1.655                   1.655                   1.655
     3   3                       0                       0      3.3100000000000001
     4   1                   1.655                   1.655      4.9649999999999999
     5   2                       0                       0      6.6200000000000001
     6   3                   1.655                   1.655      8.2750000000000004
     7   2                       0                       0      9.9299999999999997
     8   4                   1.655                   1.655      11.584999999999999
     9   2                       0                       0                   13.24
    10   1                   1.655                   1.655                  14.895
    11   2                       0                       0      16.550000000000001
    12   4                   1.655                   1.655      18.205000000000002
    13   4                       0                       0      19.859999999999999
    14   4                   1.655                   1.655      21.515000000000001
    15   2                       0                       0      23.170000000000002
    16   2                   1.655                   1.655      24.825000000000003
    17   5                       0                       0                   26.48
    18   2                   1.655                   1.655      28.135000000000002
    19   5                       0                       0      29.789999999999999
    20   2                   1.655                   1.655                  31.445
    21   2                       0                       0      33.100000000000001
    22   3                   1.655                   1.655      34.755000000000003
    23   1                       0                       0      36.410000000000004
    24   4                   1.655                   1.655      38.065000000000005
    25   4                       0                       0      39.719999999999999
    26   4                   1.655                   1.655                  41.375
    27   5                       0                       0      43.030000000000001
    28   4                   1.655                   1.655      44.685000000000002
    29   4                       0                       0      46.340000000000003
    30   5                   1.655                   1.655      47.995000000000005
    31   5                       0                       0      49.649999999999999
    32   1                   1.655                   1.655                  51.305
    33   2                       0                       0      52.960000000000001
    34   5                   1.655                   1.655      54.615000000000002
    35   1                       0                       0      56.270000000000003
    36   4                   1.655                   1.655      57.925000000000004
    37   2                       0                       0      59.579999999999998
    38   1                   1.655                   1.655      61.234999999999999
    39   5                       0                       0      62.890000000000001
    40   3                   1.655                   1.655      64.545000000000002
    41   1                       0      3.3100000000000001                       0
    42   2                   1.655      4.9649999999999999                   1.655
    43   1                       0      3.3100000000000001      3.3100000000000001
    44   4                   1.655      4.9649999999999999      4.9649999999999999
    45   1                       0      3.3100000000000001      6.6200000000000001
    46   5                   1.655      4.9649999999999999      8.2750000000000004
    47   3                       0      3.3100000000000001      9.9299999999999997
    48   3                   1.655      4.9649999999999999      11.584999999999999
    49   4                       0      3.3100000000000001                   13.24
    50   3                   1.655      4.9649999999999999                  14.895
    51   3                       0      3.3100000000000001      16.550000000000001
    52   2                   1.655      4.9649999999999999      18.205000000000002
    53   3                       0      3.3100000000000001      19.859999999999999
    54   2                   1.655      4.9649999999999999      21.515000000000001
    55   2                       0      3.3100000000000001      23.170000000000002
    56   5                   1.655      4.9649999999999999      24.825000000000003
    57   4                       0      3.3100000000000001                   26.48
    58   4                   1.655      4.9649999999999999      28.135000000000002
    59   5                       0      3.3100000000000001      29.789999999999999
    60   4                   1.655      4.9649999999999999                  31.445
    61   5                       0      3.3100000000000001      33.100000000000001
    62   4                   1.655      4.9649999999999999      34.755000000000003
    63   1                       0      3.3100000000000001      36.410000000000004
    64   2                   1.655      4.9649999999999999      38.065000000000005
    65   1                       0      3.3100000000000001      39.719999999999999
    66   3                   1.655      4.9649999999999999                  41.375
    67   4                       0      3.3100000000000001      43.030000000000001
    68   2                   1.655      4.9649999999999999      44.685000000000002
    69   1                       0      3.3100000000000001      46.340000000000003
    70   4                   1.655      4.9649999999999999      47.995000000000005
    71   1                       0      3.3100000000000001      49.649999999999999
    72   3                   1.655      4.9649999999999999                  51.305
    73   5                       0      3.3100000000000001      52.960000000000001
    74   3                   1.655      4.9649999999999999      54.615000000000002
    75   5                       0      3.3100000000000001      56.270000000000003
    76   3                   1.655      4.9649999999999999      57.925000000000004
    77   2                       0      3.3100000000000001      59.579999999999998
    78   3                   1.655      4.9649999999999999      61.234999999999999
    79   4                       0      3.3100000000000001      62.890000000000001
    80   3                   1.655      4.9649999999999999      64.545000000000002
    81   5                       0      6.6200000000000001                       0
    82   4                   1.655      8.2750000000000004                   1.655
    83   5                       0      6.6200000000000001      3.3100000000000001
    84   4                   1.655      8.2750000000000004      4.9649999999999999
    85   5                       0      6.6200000000000001      6.6200000000000001
    86   5                   1.655      8.2750000000000004      8.2750000000000004
    87   3                       0      6.6200000000000001      9.9299999999999997
    88   2                   1.655      8.2750000000000004      11.584999999999999
    89   3                       0      6.6200000000000001                   13.24
    90   2                   1.655      8.2750000000000004                  14.895
    91   1                       0      6.6200000000000001      16.550000000000001
    92   3                   1.655      8.2750000000000004      18.205000000000002
    93   5                       0      6.6200000000000001      19.859999999999999
    94   4                   1.655      8.2750000000000004      21.515000000000001
    95   2                       0      6.6200000000000001      23.170000000000002
    96   3                   1.655      8.2750000000000004      24.825000000000003
    97   1                       0      6.6200000000000001                   26.48
    98   4                   1.655      8.2750000000000004      28.135000000000002
    99   5                       0      6.6200000000000001      29.789999999999999
   100   4                   1.655      8.2750000000000004                  31.445
   101   1                       0      6.6200000000000001      33.100000000000001
   102   2                   1.655      8.2750000000000004      34.755000000000003
   103   1                       0      6.6200000000000001      36.410000000000004
   104   5                   1.655      8.2750000000000004      38.065000000000005
   105   2                       0      6.6200000000000001      39.719999999999999
   106   1                   1.655      8.2750000000000004                  41.375
   107   5                       0      6.6200000000000001      43.030000000000001
   108   5                   1.655      8.2750000000000004      44.685000000000002
   109   3                       0      6.6200000000000001      46.340000000000003
   110   2                   1.655      8.2750000000000004      47.995000000000005
   111   3                       0      6.6200000000000001      49.649999999999999
   112   3                   1.655      8.2750000000000004                  51.305
   113   2                       0      6.6200000000000001      52.960000000000001
   114   2                   1.655      8.2750000000000004      54.615000000000002
   115   4                       0      6.6200000000000001      56.270000000000003
   116   5                   1.655      8.2750000000000004      57.925000000000004
   117   3                       0      6.6200000000000001      59.579999999999998
   118   3                   1.655      8.2750000000000004      61.234999999999999
   119   4                       0      6.6200000000000001      62.890000000000001
   120   4                   1.655      8.2750000000000004      64.545000000000002
   121   2                       0      9.9299999999999997                       0
   122   2                   1.655      11.584999999999999                   1.655
   123   4                       0      9.9299999999999997      3.3100000000000001
   124   4                   1.655      11.584999999999999      4.9649999999999999
   125   2                       0      9.9299999999999997      6.6200000000000001
   126   2                   1.655      11.584999999999999      8.2750000000000004
   127   2                       0      9.9299999999999997      9.9299999999999997
   128   3                   1.655      11.584999999999999      11.584999999999999
   129   2                       0      9.9299999999999997                   13.24
   130   2                   1.655      11.584999999999999                  14.895
   131   1                       0      9.9299999999999997      16.550000000000001
   132   1                   1.655      11.584999999999999      18.205000000000002
   133   1                       0      9.9299999999999997      19.859999999999999
   134   5                   1.655      11.584999999999999      21.515000000000001
   135   5                       0      9.9299999999999997      23.170000000000002
   136   2                   1.655      11.584999999999999      24.825000000000003
   137   5                       0      9.9299999999999997                   26.48
   138   3                   1.655      11.584999999999999      28.135000000000002
   139   1                       0      9.9299999999999997      29.789999999999999
   140   5                   1.655      11.584999999999999                  31.445
   141   5                       0      9.9299999999999997      33.100000000000001
   142   1                   1.655      11.584999999999999      34.755000000000003
   143   4                       0      9.9299999999999997      36.410000000000004
   144   1                   1.655      11.584999999999999      38.065000000000005
   145   1                       0      9.9299999999999997      39.719999999999999
   146   4                   1.655      11.584999999999999                  41.375
   147   3                       0      9.9299999999999997      43.030000000000001
   148   3                   1.655      11.584999999999999      44.685000000000002
   149   3                       0      9.9299999999999997      46.340000000000003
   150   5                   1.655      11.584999999999999      47.995000000000005
   151   4                       0      9.9299999999999997      49.649999999999999
   152   2                   1.655      11.584999999999999                  51.305
   153   1                       0      9.9299999999999997      52.960000000000001
   154   5                   1.655      11.584999999999999      54.615000000000002
   155   5                       0      9.9299999999999997      56.270000000000003
   156   3                   1.655      11.584999999999999      57.925000000000004
   157   3                       0      9.9299999999999997      59.579999999999998
   158   2                   1.655      11.584999999999999      61.234999999999999
   159   3                       0      9.9299999999999997      62.890000000000001
   160   2                   1.655      11.584999999999999      64.545000000000002
   161   4                       0                   13.24                       0
   162   1                   1.655                  14.895                   1.655
   163   3                       0                   13.24      3.3100000000000001
   164   4                   1.655                  14.895      4.9649999999999999
   165   2                       0                   13.24      6.6200000000000001
   166   2                   1.655                  14.895      8.2750000000000004
   167   2                       0                   13.24      9.9299999999999997
   168   4                   1.655                  14.895      11.584999999999999
   169   5                       0                   13.24                   13.24
   170   4                   1.655                  14.895                  14.895
   171   2                       0                   13.24      16.550000000000001
   172   1                   1.655                  14.895      18.205000000000002
   173   3                       0                   13.24      19.859999999999999
   174   5                   1.655                  14.895      21.515000000000001
   175   4                       0                   13.24      23.170000000000002
   176   5                   1.655                  14.895      24.825000000000003
   177   4                       0                   13.24                   26.48
   178   1                   1.655                  14.895      28.135000000000002
   179   5                       0                   13.24      29.789999999999999
   180   1                   1.655                  14.895                  31.445
   181   2                       0                   13.24      33.100000000000001
   182   5                   1.655                  14.895      34.755000000000003
   183   4                       0                   13.24      36.410000000000004
   184   2                   1.655                  14.895      38.065000000000005
   185   1                       0                   13.24      39.719999999999999
   186   4                   1.655                  14.895                  41.375
   187   3                       0                   13.24      43.030000000000001
   188   1                   1.655                  14.895      44.685000000000002
   189   2                       0                   13.24      46.340000000000003
   190   3                   1.655                  14.895      47.995000000000005
   191   3                       0                   13.24      49.649999999999999
   192   2                   1.655                  14.895                  51.305
   193   4                       0                   13.24      52.960000000000001
   194   4                   1.655                  14.895      54.615000000000002
   195   4                       0                   13.24      56.270000000000003
   196   1                   1.655                  14.895      57.925000000000004
   197   1                       0                   13.24      59.579999999999998
   198   2                   1.655                  14.895      61.234999999999999
   199   1                       0                   13.24      62.890000000000001
   200   5                   1.655                  14.895      64.545000000000002
   201   4                       0      16.550000000000001                       0
   202   3                   1.655      18.205000000000002                   1.655
   203   1                       0      16.550000000000001      3.3100000000000001
   204   1                   1.655      18.205000000000002      4.9649999999999999
   205   4                       0      16.550000000000001      6.6200000000000001
   206   3                   1.655      18.205000000000002      8.2750000000000004
   207   5                       0      16.550000000000001      9.9299999999999997
   208   3                   1.655      18.205000000000002      11.584999999999999
   209   3                       0      16.550000000000001                   13.24
   210   3                   1.655      18.205000000000002                  14.895
   211   1                       0      16.550000000000001      16.550000000000001
   212   2                   1.655      18.205000000000002      18.205000000000002
   213   4                       0      16.550000000000001      19.859999999999999
   214   1                   1.655      18.205000000000002      21.515000000000001
   215   5                       0      16.550000000000001      23.170000000000002
   216   5                   1.655      18.205000000000002      24.825000000000003
   217   5                       0      16.550000000000001                   26.48
   218   2                   1.655      18.205000000000002      28.135000000000002
   219   2                       0      16.550000000000001      29.789999999999999
   220   5                   1.655      18.205000000000002                  31.445
   221   4                       0      16.550000000000001      33.100000000000001
   222   2                   1.655      18.205000000000002      34.755000000000003
   223   5                       0      16.550000000000001      36.410000000000004
   224   3                   1.655      18.205000000000002      38.065000000000005
   225   4                       0      16.550000000000001      39.719999999999999
   226   5                   1.655      18.205000000000002                  41.375
   227   5                       0      16.550000000000001      43.030000000000001
   228   2                   1.655      18.205000000000002      44.685000000000002
   229   5                       0      16.550000000000001      46.340000000000003
   230   4                   1.655      18.205000000000002      47.995000000000005
   231   3                       0      16.550000000000001      49.649999999999999
   232   5                   1.655      18.205000000000002                  51.305
   233   3                       0      16.550000000000001      52.960000000000001
   234   1                   1.655      18.205000000000002      54.615000000000002
   235   1                       0      16.550000000000001      56.270000000000003
   236   3                   1.655      18.205000000000002      57.925000000000004
   237   3                       0      16.550000000000001      59.579999999999998
   238   4                   1.655      18.205000000000002      61.234999999999999
   239   5                       0      16.550000000000001      62.890000000000001
   240   3                   1.655      18.205000000000002      64.545000000000002
   241   4                       0      19.859999999999999                       0
   242   5                   1.655      21.515000000000001                   1.655
   243   5                       0      19.859999999999999      3.3100000000000001
   244   3                   1.655      21.515000000000001      4.9649999999999999
   245   2                       0      19.859999999999999      6.6200000000000001
   246   2                   1.655      21.515000000000001      8.2750000000000004
   247   1                       0      19.859999999999999      9.9299999999999997
   248   4                   1.655      21.515000000000001      11.584999999999999
   249   3                       0      19.859999999999999                   13.24
   250   2                   1.655      21.515000000000001                  14.895
   251   4                       0      19.859999999999999      16.550000000000001
   252   4                   1.655      21.515000000000001      18.205000000000002
   253   3                       0      19.859999999999999      19.859999999999999
   254   1                   1.655      21.515000000000001      21.515000000000001
   255   2                       0      19.859999999999999      23.170000000000002
   256   4                   1.655      21.515000000000001      24.825000000000003
   257   1                       0      19.859999999999999                   26.48
   258   4                   1.655      21.515000000000001      28.135000000000002
   259   2                       0      19.859999999999999      29.789999999999999
   260   1                   1.655      21.515000000000001                  31.445
   261   2                       0      19.859999999999999      33.100000000000001
   262   3                   1.655      21.515000000000001      34.755000000000003
   263   3                       0      19.859999999999999      36.410000000000004
   264   5                   1.655      21.515000000000001      38.065000000000005
   265   5                       0      19.859999999999999      39.719999999999999
   266   4                   1.655      21.515000000000001                  41.375
   267   3                       0      19.859999999999999      43.030000000000001
   268   2                   1.655      21.515000000000001      44.685000000000002
   269   4                       0      19.859999999999999      46.340000000000003
   270   5                   1.655      21.515000000000001      47.995000000000005
   271   4                       0      19.859999999999999      49.649999999999999
   272   3                   1.655      21.515000000000001                  51.305
   273   5                       0      19.859999999999999      52.960000000000001
   274   2                   1.655      21.515000000000001      54.615000000000002
   275   2                       0      19.859999999999999      56.270000000000003
   276   1                   1.655      21.515000000000001      57.925000000000004
   277   3                       0      19.859999999999999      59.579999999999998
   278   1                   1.655      21.515000000000001      61.234999999999999
   279   1                       0      19.859999999999999      62.890000000000001
   280   5                   1.655      21.515000000000001      64.545000000000002
   281   1                       0      23.170000000000002                       0
   282   1                   1.655      24.825000000000003                   1.655
   283   5                       0      23.170000000000002      3.3100000000000001
   284   1                   1.655      24.825000000000003      4.9649999999999999
   285   5                       0      23.170000000000002      6.6200000000000001
   286   3                   1.655      24.825000000000003      8.2750000000000004
   287   1                       0      23.170000000000002      9.9299999999999997
   288   5                   1.655      24.825000000000003      11.584999999999999
   289   3                       0      23.170000000000002                   13.24
   290   4                   1.655      24.825000000000003                  14.895
   291   5                       0      23.170000000000002      16.550000000000001
   292   2                   1.655      24.825000000000003      18.205000000000002
   293   3                       0      23.170000000000002      19.859999999999999
   294   3                   1.655      24.825000000000003      21.515000000000001
   295   1                       0      23.170000000000002      23.170000000000002
   296   4                   1.655      24.825000000000003      24.825000000000003
   297   4                       0      23.170000000000002                   26.48
   298   2                   1.655      24.825000000000003      28.135000000000002
   299   2                       0      23.170000000000002      29.789999999999999
   300   3                   1.655      24.825000000000003                  31.445
   301   2                       0      23.170000000000002      33.100000000000001
   302   2                   1.655      24.825000000000003      34.755000000000003
   303   5                       0      23.170000000000002      36.410000000000004
   304   1                   1.655      24.825000000000003      38.065000000000005
   305   5                       0      23.170000000000002      39.719999999999999
   306   5                   1.655      24.825000000000003                  41.375
   307   2                       0      23.170000000000002      43.030000000000001
   308   4                   1.655      24.825000000000003      44.685000000000002
   309   5                       0      23.170000000000002      46.340000000000003
   310   3                   1.655      24.825000000000003      47.995000000000005
   311   2                       0      23.170000000000002      49.649999999999999
   312   5                   1.655      24.825000000000003                  51.305
   313   3                       0      23.170000000000002      52.960000000000001
   314   3                   1.655      24.825000000000003      54.615000000000002
   315   2                       0      23.170000000000002      56.270000000000003
   316   5                   1.655      24.825000000000003      57.925000000000004
   317   1                       0      23.170000000000002      59.579999999999998
   318   1                   1.655      24.825000000000003      61.234999999999999
   319   3                       0      23.170000000000002      62.890000000000001
   320   5                   1.655      24.825000000000003      64.545000000000002
   321   1                       0                   26.48                       0
   322   5                   1.655      28.135000000000002                   1.655
   323   2                       0                   26.48      3.3100000000000001
   324   4                   1.655      28.135000000000002      4.9649999999999999
   325   2                       0                   26.48      6.6200000000000001
   326   1                   1.655      28.135000000000002      8.2750000000000004
   327   2                       0                   26.48      9.9299999999999997
   328   4                   1.655      28.135000000000002      11.584999999999999
   329   3                       0                   26.48                   13.24
   330   1                   1.655      28.135000000000002                  14.895
   331   3                       0                   26.48      16.550000000000001
   332   3                   1.655      28.135000000000002      18.205000000000002
   333   3                       0                   26.48      19.859999999999999
   334   5                   1.655      28.135000000000002      21.515000000000001
   335   3                       0                   26.48      23.170000000000002
   336   2                   1.655      28.135000000000002      24.825000000000003
   337   2                       0                   26.48                   26.48
   338   3                   1.655      28.135000000000002      28.135000000000002
   339   5                       0                   26.48      29.789999999999999
   340   5                   1.655      28.135000000000002                  31.445
   341   1                       0                   26.48      33.100000000000001
   342   3                   1.655      28.135000000000002      34.755000000000003
   343   1                       0                   26.48      36.410000000000004
   344   1                   1.655      28.135000000000002      38.065000000000005
   345   2                       0                   26.48      39.719999999999999
   346   5                   1.655      28.135000000000002                  41.375
   347   5                       0                   26.48      43.030000000000001
   348   1                   1.655      28.135000000000002      44.685000000000002
   349   2                       0                   26.48      46.340000000000003
   350   2                   1.655      28.135000000000002      47.995000000000005
   351   5                       0                   26.48      49.649999999999999
   352   1                   1.655      28.135000000000002                  51.305
   353   4                       0                   26.48      52.960000000000001
   354   5                   1.655      28.135000000000002      54.615000000000002
   355   4                       0                   26.48      56.270000000000003
   356   1                   1.655      28.135000000000002      57.925000000000004
   357   4                       0                   26.48      59.579999999999998
   358   2                   1.655      28.135000000000002      61.234999999999999
   359   2                       0                   26.48      62.890000000000001